BEGIN_CFG
Size
96
Supercell
12.63888306323868	0.0	0.0
0.0	10.945593808169482	0.0
0.0	0.0	12.258837544906266
AtomData:	id	type	cartes_x	cartes_y	cartes_z	fx	fy	fz
1	0	1.57986038290483477020	4.56066408671904266470	3.06470938622656641215	0.00004133365762000000	0.00001815209744000000	0.00000746371044000000	
2	0	1.57986038290483499225	6.38492972145044124233	9.19412815867969968053	0.00002371126800000000	-0.00003478358516000000	-0.00000961061764000000	
3	1	1.57986038290483477020	4.56066408671904266470	7.61670052988453871734	0.00002147138763000000	0.00000778050539000000	0.03324322507820000328	
4	1	1.57986038290483499225	6.38492972145044124233	4.64213701502172781943	-0.00000220891271000000	-0.00000701095688000000	-0.03320850607631999768	
5	1	1.57986038290483477020	4.56066408671904266470	10.77155578747485975555	0.00002122399499000000	0.00000767566235000000	-0.03324284216403999848	
6	1	1.57986038290483499225	6.38492972145044124233	1.48728175743140478282	-0.00000208033752000000	-0.00000616584373000000	0.03320938172732999794	
7	0	3.15972076580966998449	7.29706253876141275327	3.06470938622656641215	0.00001995830557000000	0.00001367640632000000	0.00000790331718000000	
8	0	3.15972076580966998449	9.12132817349281133090	9.19412815867969968053	0.00003990845664000000	-0.00000791527915000000	-0.00000806072941000000	
9	1	3.15972076580966998449	7.29706253876141275327	7.61670052988453871734	0.00001075787471000000	-0.00000830827112000000	0.03325148564192000056	
10	1	3.15972076580966998449	9.12132817349281133090	4.64213701502172781943	-0.00001602291482000000	0.00001401378228000000	-0.03324472135926000160	
11	1	3.15972076580966998449	7.29706253876141275327	10.77155578747485975555	0.00001082412175000000	-0.00000827130665000000	-0.03325235083906000200	
12	1	3.15972076580966998449	9.12132817349281133090	1.48728175743140478282	-0.00001517367302000000	0.00001481151584000000	0.03324527799284000135	
13	0	1.57986038290483477020	10.03346099080378373003	3.06470938622656641215	0.00004361545392000000	0.00000322157783000000	0.00000924535214000000	
14	0	1.57986038290483499225	0.91213281736569939984	9.19412815867969968053	0.00002365001252000000	0.00001227702335000000	-0.00000955520287000000	
15	1	1.57986038290483477020	10.03346099080378373003	7.61670052988453871734	0.00002802627773000000	0.00001348746920000000	0.03321413619389999849	
16	1	1.57986038290483499225	0.91213281736569939984	4.64213701502172781943	0.00000999138575000000	-0.00002629646041000000	-0.03322182912087000284	
17	1	1.57986038290483477020	10.03346099080378373003	10.77155578747485975555	0.00002821145927000000	0.00001438617636000000	-0.03321532582700000014	
18	1	1.57986038290483499225	0.91213281736569939984	1.48728175743140478282	0.00001054820866000000	-0.00002585473177000000	0.03322281055299999841	
19	0	3.15972076580966998449	1.82426563467667124385	3.06470938622656641215	0.00003180262589000000	-0.00000175526728000000	0.00001097873469000000	
20	0	3.15972076580966998449	3.64853126940806982148	9.19412815867969968053	0.00002041459253000000	-0.00001132000278000000	-0.00000878737646000000	
21	1	3.15972076580966998449	1.82426563467667124385	7.61670052988453871734	0.00001566597309000000	0.00000188026967000000	0.03326148669547999981	
22	1	3.15972076580966998449	3.64853126940806982148	4.64213701502172781943	-0.00000358060695000000	0.00000185757281000000	-0.03322080560104000158	
23	1	3.15972076580966998449	1.82426563467667124385	10.77155578747485975555	0.00001642574858000000	0.00000191642728000000	-0.03326235317736000313	
24	1	3.15972076580966998449	3.64853126940806982148	1.48728175743140478282	-0.00000330212644000000	0.00000133231292000000	0.03322147591517000259	
25	0	4.73958114871450497674	4.56066408671904266470	3.06470938622656641215	0.00000444577317000000	0.00001209898089000000	0.00001047265605000000	
26	0	4.73958114871450497674	6.38492972145044124233	9.19412815867969968053	-0.00001461220247000000	-0.00000940108200000000	-0.00000971527892000000	
27	1	4.73958114871450497674	4.56066408671904266470	7.61670052988453871734	-0.00000116030333000000	0.00000613384873000000	0.03325562081215999860	
28	1	4.73958114871450497674	6.38492972145044124233	4.64213701502172781943	-0.00001701366597000000	-0.00001184175617000000	-0.03321510616557000334	
29	1	4.73958114871450497674	4.56066408671904266470	10.77155578747485975555	-0.00000067734806000000	0.00000575141898000000	-0.03325595916357999837	
30	1	4.73958114871450497674	6.38492972145044124233	1.48728175743140478282	-0.00001668822890000000	-0.00001246679720000000	0.03321459628506000239	
31	0	6.31944153161933908081	7.29706253876141275327	3.06470938622656641215	0.00000400281079000000	0.00001046440457000000	0.00001065589548000000	
32	0	6.31944153161933908081	9.12132817349281133090	9.19412815867969968053	-0.00003595506637000000	-0.00000799923623000000	-0.00001138843971000000	
33	1	6.31944153161933908081	7.29706253876141275327	7.61670052988453871734	-0.00001277404367000000	-0.00000192765081000000	0.03322763946269999963	
34	1	6.31944153161933908081	9.12132817349281133090	4.64213701502172781943	-0.00002406360906000000	0.00000971687978000000	-0.03321365103769000071	
35	1	6.31944153161933908081	7.29706253876141275327	10.77155578747485975555	-0.00001300462891000000	-0.00000125073772000000	-0.03322995718111999841	
36	1	6.31944153161933908081	9.12132817349281133090	1.48728175743140478282	-0.00002401619307000000	0.00001090618826000000	0.03321356017213000084	
37	0	4.73958114871450497674	10.03346099080378373003	3.06470938622656641215	-0.00000691156156000000	0.00001894253030000000	0.00001145635243000000	
38	0	4.73958114871450497674	0.91213281736569939984	9.19412815867969968053	-0.00002343382840000000	-0.00000636149008000000	-0.00000920107561000000	
39	1	4.73958114871450497674	10.03346099080378373003	7.61670052988453871734	0.00000211454124000000	0.00002184937620000000	0.03324396695349000203	
40	1	4.73958114871450497674	0.91213281736569939984	4.64213701502172781943	-0.00001931868551000000	-0.00001755777929000000	-0.03321715395065000243	
41	1	4.73958114871450497674	10.03346099080378373003	10.77155578747485975555	0.00000145323940000000	0.00002222174573000000	-0.03324495011588000232	
42	1	4.73958114871450497674	0.91213281736569939984	1.48728175743140478282	-0.00001823767021000000	-0.00001799777082000000	0.03321858817437999684	
43	0	6.31944153161933908081	1.82426563467667124385	3.06470938622656641215	0.00000750940906000000	0.00001020698886000000	0.00001073158362000000	
44	0	6.31944153161933908081	3.64853126940806982148	9.19412815867969968053	-0.00003484064981000000	-0.00000425399403000000	-0.00000956326742000000	
45	1	6.31944153161933908081	1.82426563467667124385	7.61670052988453871734	-0.00002438535360000000	0.00000537093524000000	0.03322831832593999696	
46	1	6.31944153161933908081	3.64853126940806982148	4.64213701502172781943	-0.00001841178505000000	0.00000878023074000000	-0.03320773260965999979	
47	1	6.31944153161933908081	1.82426563467667124385	10.77155578747485975555	-0.00002486598523000000	0.00000577270053000000	-0.03322992108476999912	
48	1	6.31944153161933908081	3.64853126940806982148	1.48728175743140478282	-0.00001845249547000000	0.00000785649789000000	0.03320893672687000309	
49	0	7.89930191452417496123	4.56066408671904266470	3.06470938622656641215	0.00001204494320000000	0.00000403610563000000	0.00001095159803000000	
50	0	7.89930191452417496123	6.38492972145044124233	9.19412815867969968053	-0.00001360460843000000	-0.00001835926503000000	-0.00001048461309000000	
51	1	7.89930191452417496123	4.56066408671904266470	7.61670052988453871734	0.00002018787421000000	-0.00001459801966000000	0.03323346546996999717	
52	1	7.89930191452417496123	6.38492972145044124233	4.64213701502172781943	0.00000355722356000000	-0.00000207554993000000	-0.03320362730560000308	
53	1	7.89930191452417496123	4.56066408671904266470	10.77155578747485975555	0.00001955432686000000	-0.00001467882908000000	-0.03323487363810000150	
54	1	7.89930191452417496123	6.38492972145044124233	1.48728175743140478282	0.00000432359651000000	-0.00000160296557000000	0.03320409720770999690	
55	0	9.47916229742900995348	7.29706253876141275327	3.06470938622656641215	-0.00000255270360000000	0.00001145403843000000	0.00000903747223000000	
56	0	9.47916229742900995348	9.12132817349281133090	9.19412815867969968053	-0.00002782876972000000	-0.00001139018660000000	-0.00000909146330000000	
57	1	9.47916229742900995348	7.29706253876141275327	7.61670052988453871734	0.00001904993914000000	0.00000837855612000000	0.03322189544093000213	
58	1	9.47916229742900995348	9.12132817349281133090	4.64213701502172781943	-0.00000696216409000000	-0.00001375328612000000	-0.03320897531765999722	
59	1	9.47916229742900995348	7.29706253876141275327	10.77155578747485975555	0.00001839039845000000	0.00000886147616000000	-0.03322170682575999873	
60	1	9.47916229742900995348	9.12132817349281133090	1.48728175743140478282	-0.00000753001968000000	-0.00001347309107000000	0.03320916945780000296	
61	0	7.89930191452417496123	10.03346099080378373003	3.06470938622656641215	0.00001561440035000000	0.00002301408711000000	0.00001141097755000000	
62	0	7.89930191452417496123	0.91213281736569939984	9.19412815867969968053	-0.00001820940897000000	-0.00000410570179000000	-0.00000905395795000000	
63	1	7.89930191452417496123	10.03346099080378373003	7.61670052988453871734	0.00001440512306000000	-0.00001426282070000000	0.03320507535844999941	
64	1	7.89930191452417496123	0.91213281736569939984	4.64213701502172781943	0.00001309320651000000	0.00000369976513000000	-0.03321447075852999864	
65	1	7.89930191452417496123	10.03346099080378373003	10.77155578747485975555	0.00001338099389000000	-0.00001675853698000000	-0.03320536955910999982	
66	1	7.89930191452417496123	0.91213281736569939984	1.48728175743140478282	0.00001356713629000000	0.00000427665358000000	0.03321490154707999742	
67	0	9.47916229742900995348	1.82426563467667124385	3.06470938622656641215	-0.00002194093932000000	0.00001005891451000000	0.00001024620527000000	
68	0	9.47916229742900995348	3.64853126940806982148	9.19412815867969968053	-0.00000442241020000000	-0.00000742809236000000	-0.00001524614858000000	
69	1	9.47916229742900995348	1.82426563467667124385	7.61670052988453871734	0.00002960197791000000	0.00002127471230000000	0.03322899968178000263	
70	1	9.47916229742900995348	3.64853126940806982148	4.64213701502172781943	-0.00000994634861000000	-0.00002076125669000000	-0.03322263249085000147	
71	1	9.47916229742900995348	1.82426563467667124385	10.77155578747485975555	0.00002733893020000000	0.00002022746862000000	-0.03322707846001000248	
72	1	9.47916229742900995348	3.64853126940806982148	1.48728175743140478282	-0.00001026318626000000	-0.00002157194484000000	0.03322423160440000217	
73	0	11.05902268033384672208	4.56066408671904266470	3.06470938622656641215	-0.00002283868133000000	0.00001924444869000000	0.00001153068235000000	
74	0	11.05902268033384672208	6.38492972145044124233	9.19412815867969968053	-0.00002725630961000000	-0.00004630410721000000	-0.00001312046340000000	
75	1	11.05902268033384672208	4.56066408671904266470	7.61670052988453871734	-0.00000624797492000000	0.00000005489896000000	0.03323797745236999751	
76	1	11.05902268033384672208	6.38492972145044124233	4.64213701502172781943	-0.00001303797389000000	0.00000098123269000000	-0.03320934670929000243	
77	1	11.05902268033384672208	4.56066408671904266470	10.77155578747485975555	-0.00000630370691000000	0.00000050245039000000	-0.03323805763177999778	
78	1	11.05902268033384672208	6.38492972145044124233	1.48728175743140478282	-0.00001405653772000000	0.00000144162812000000	0.03320968840179999715	
79	0	0.00000000000000082799	7.29706253876141275327	3.06470938622656641215	0.00001062114024000000	0.00001896824690000000	0.00000941484811000000	
80	0	0.00000000000000082799	9.12132817349281133090	9.19412815867969968053	-0.00001189939936000000	-0.00000336044113000000	-0.00000851330705000000	
81	1	0.00000000000000082799	7.29706253876141275327	7.61670052988453871734	0.00001393722512000000	-0.00002276425478000000	0.03321420942588999836	
82	1	0.00000000000000082799	9.12132817349281133090	4.64213701502172781943	0.00001270964016000000	0.00001014080923000000	-0.03322089782116000034	
83	1	0.00000000000000082799	7.29706253876141275327	10.77155578747485975555	0.00001322135199000000	-0.00002369585087000000	-0.03321512888453000134	
84	1	0.00000000000000082799	9.12132817349281133090	1.48728175743140478282	0.00001215831580000000	0.00001100440949000000	0.03322147943133999665	
85	0	11.05902268033384672208	10.03346099080378373003	3.06470938622656641215	-0.00001164122232000000	0.00000994315637000000	0.00000978672727000000	
86	0	11.05902268033384672208	0.91213281736569939984	9.19412815867969968053	-0.00001500298014000000	0.00001322192511000000	-0.00001184486042000000	
87	1	11.05902268033384672208	10.03346099080378373003	7.61670052988453871734	-0.00001068588149000000	0.00001609102768000000	0.03321490982440000045	
88	1	11.05902268033384672208	0.91213281736569939984	4.64213701502172781943	-0.00003375223302000000	-0.00000209560488000000	-0.03320580243077000254	
89	1	11.05902268033384672208	10.03346099080378373003	10.77155578747485975555	-0.00001081533456000000	0.00001527117523000000	-0.03321463913734999662	
90	1	11.05902268033384672208	0.91213281736569939984	1.48728175743140478282	-0.00003412476147000000	-0.00000257094531000000	0.03320688195089999822	
91	0	0.00000000000000082799	1.82426563467667124385	3.06470938622656641215	0.00002208991995000000	-0.00001337586491000000	0.00000996399427000000	
92	0	0.00000000000000082799	3.64853126940806982148	9.19412815867969968053	-0.00002432356542000000	-0.00001713446780000000	-0.00000912802651000000	
93	1	0.00000000000000082799	1.82426563467667124385	7.61670052988453871734	0.00000522567864000000	-0.00000693986970000000	0.03322820397080000071	
94	1	0.00000000000000082799	3.64853126940806982148	4.64213701502172781943	-0.00000102905338000000	0.00001657399263000000	-0.03319133329871999660	
95	1	0.00000000000000082799	1.82426563467667124385	10.77155578747485975555	0.00000739994109000000	-0.00000614001254000000	-0.03322892918439000060	
96	1	0.00000000000000082799	3.64853126940806982148	1.48728175743140478282	-0.00000107181111000000	0.00001667826001000000	0.03319145671253000140	
Energy
-80527.30969438569445628673
PlusStress:	xx	yy	zz	yz	xz	xy
0.26263077979913618254	0.26680147486612720842	4.11208907201417606103	0.00002123251175251932	-0.00001592037158250820	0.00127696763284082483
END_CFG

BEGIN_CFG
Size
96
Supercell
12.671760272878997	0.0	0.0
0.0	10.8949740074958	0.0
0.0	0.0	12.270869170851043
AtomData:	id	type	cartes_x	cartes_y	cartes_z	fx	fy	fz
1	0	1.66589000000000009294	4.48932000000000019924	2.98890000000000011227	0.56160235467991004299	0.12874994360113001246	1.82273205119614001291	
2	0	1.56851000000000007084	6.36282000000000014239	9.26404999999999922977	-0.34110501636294998651	-0.33878760664446999629	-0.13652742762098998841	
3	1	1.42931999999999992390	4.54851999999999989654	7.65449999999999963762	0.75010889728719998271	0.33270069056144002673	-0.01835082220410000006	
4	1	1.72039000000000008583	6.37610999999999972232	4.65732999999999996987	-0.58931429340575003373	-1.05578695739728001257	0.00981014677934999996	
5	1	1.68364000000000002544	4.48350999999999988432	10.83220000000000027285	-1.22603491302791001161	1.03764523896603999553	0.36020155505488998804	
6	1	1.66263000000000005230	6.34051999999999971180	1.58455999999999996852	-0.27320006265149998637	0.42696187201453000837	-0.95546006551278994667	
7	0	3.23661000000000020904	7.28986999999999962796	3.11005999999999982464	0.64712772915482996705	0.95277619520129996911	-0.62125190760836002113	
8	0	3.07602999999999981995	9.13569000000000031037	9.22491999999999912063	0.75592044660902002473	-0.54939624992067004339	-0.12170434827321000015	
9	1	3.10137999999999980361	7.25065999999999988290	7.66045999999999960295	0.05183003410241000114	0.55538340656899998216	0.01844565675109999942	
10	1	3.20308999999999999275	9.14658999999999977604	4.74849999999999994316	-0.18318550761898999557	-0.32275188791412001699	-0.74735194231657997577	
11	1	3.19446999999999992070	7.29384999999999994458	10.77449999999999974420	-0.39379690788881999142	0.28094930463591999414	0.47084939133627001784	
12	1	3.30374999999999996447	9.19692000000000042803	1.54210000000000002629	-0.78518971793809000381	-0.67412520061091996126	0.10578277611231000355	
13	0	1.66687999999999991729	10.06170000000000008811	3.10126999999999997115	-0.54101317523549996569	0.01201175965202999976	0.13017775275946000257	
14	0	1.42101999999999994984	0.96072500000000005116	9.18439000000000049795	1.01599206275458997517	-1.31180635272724011031	0.69116029660051003791	
15	1	1.46625000000000005329	9.95299999999999940314	7.62708999999999992525	0.48377649472590000812	0.60665744581640002053	-0.41855243251411000660	
16	1	1.64779000000000008797	1.13725999999999993761	4.60494999999999965468	-0.72470558527777995117	-0.93218218102756000842	-0.45479148273610997544	
17	1	1.46201000000000003176	9.99302999999999919112	10.73760000000000047748	0.00498340205532999975	0.34012305738685999490	0.48204175799611997943	
18	1	1.51479999999999992433	0.93816500000000002668	1.35192000000000001059	0.48081524169186001805	0.24948843660862998761	1.86946626321592002107	
19	0	3.30506000000000010886	1.84159999999999990372	3.04138999999999981583	-1.21299768373923999576	-0.63776918364838997011	-0.74921362493238996549	
20	0	3.07941999999999982407	3.67469000000000001194	9.16960000000000086118	0.41116903532670001642	-1.02103924657743005966	-0.12712846579489001098	
21	1	2.99563999999999985846	1.76282000000000005357	7.65883999999999964814	0.77898509615078004309	0.82071161335705000717	-0.69948769693249002177	
22	1	3.41895000000000015561	3.55686999999999997613	4.62194000000000038142	-1.23530957342893010775	1.34560401549931007992	-0.50214808798790999678	
23	1	3.06315999999999988290	1.81136999999999992461	10.72959999999999958220	0.18932427254944000916	0.18366112882613999657	0.08333628623015999770	
24	1	3.31472999999999995424	3.59656999999999982265	1.40190999999999998948	-0.34343688241046999021	0.35104204555673002019	0.38024318473752000136	
25	0	4.83206000000000024386	4.65716999999999980986	2.97393999999999980588	-0.70627851343007996832	-1.32353977280827006524	1.47020626190613001860	
26	0	4.74308999999999958419	6.43925000000000036238	9.19870000000000054285	0.11999267837983999818	-0.26244307296005997543	0.33390074240805001082	
27	1	4.64165999999999989711	4.65538999999999969504	7.67987000000000019639	0.40036074862743997738	-0.55727271138226996960	-1.17938247096781001488	
28	1	4.84985999999999961574	6.43904000000000031889	4.67217000000000037829	-0.38283042932562000304	-0.57517238903099998648	-0.49793368098603002503	
29	1	4.72973999999999961119	4.47407000000000021345	10.71759999999999912745	0.12287134511529999858	0.85420100808606003184	0.07272717917519000430	
30	1	4.82080999999999981753	6.43367000000000022197	1.36675999999999997492	-0.14054266376624999224	0.28605358773218997337	1.10386900918561003948	
31	0	6.42933000000000021146	7.26776999999999961943	3.08260999999999985022	-1.59950984567568998962	0.48832855367071997810	-0.49038162828470999166	
32	0	6.35862000000000016087	9.17985000000000006537	9.20384999999999919851	-1.63935474842282991048	-1.48863690020060990271	-1.10990926623192009970	
33	1	6.31174999999999997158	7.31871999999999989228	7.51888000000000022993	-0.21975089705080999569	0.23910498781830999415	1.29714893637680006577	
34	1	6.32113000000000013756	9.01626000000000082935	4.79279000000000010573	0.79030643728821003968	0.57081249452214000151	-1.03928507730418995259	
35	1	6.31470999999999982322	7.33922000000000007702	10.82789999999999963620	0.19315149858572999708	0.04691919957678000047	-0.96419755204151003092	
36	1	6.35282999999999997698	9.10693000000000019156	1.61748000000000002885	0.24574414868930000155	-0.10723587179959999383	-1.19458448917924009436	
37	0	4.82828999999999997073	10.00009999999999976694	3.15474999999999994316	-0.69114834833696003891	-0.43444463978537001259	1.25389077093300005394	
38	0	4.68756000000000039307	0.94149700000000002831	9.17548000000000030241	-0.31464980217360000170	-0.13376912454344000447	-0.84036480345132003045	
39	1	4.60679999999999978400	9.96172999999999930765	7.61165000000000002700	0.76845490520112003097	0.48160768916495999559	0.37809661430113000735	
40	1	4.69200999999999979195	0.87442100000000000382	4.76689999999999969305	0.72514832867588996379	0.41702464117019000245	-0.34943761083029001302	
41	1	4.78150999999999992696	10.11979999999999968452	10.77229999999999954241	-0.58959682194507001540	-0.85464164187096003378	0.01635148271484000021	
42	1	4.91338999999999970214	0.82214399999999998592	1.58837000000000005961	-0.55472436030010996433	0.83906306938757002634	-0.68381209685306998391	
43	0	6.34246999999999960806	1.80966999999999988979	3.21261000000000018773	0.02662959113609000145	-0.48406930640571999014	-0.89618751597738000036	
44	0	6.29706000000000010175	3.67275000000000018119	9.10593000000000074579	0.10309972432392000563	-0.81274215002123995077	0.65107065130115004958	
45	1	6.32720000000000037943	1.76007000000000002338	7.54959999999999986642	-0.84075508620198002863	0.82908520218421000170	0.10473402404494999707	
46	1	6.28172999999999959186	3.67329000000000016612	4.68585000000000029274	0.48824607481167997536	0.43419044021792002619	-0.07147185246571000072	
47	1	6.21488999999999958135	1.78281000000000000583	10.77619999999999933493	0.83745287407896995546	0.87474773249675996656	-0.73457678733545994643	
48	1	6.35048000000000012477	3.57267000000000001236	1.59177999999999997272	0.26028220318570999270	-0.07770468496183000062	-1.30750546700844005876	
49	0	7.87030000000000029559	4.52840000000000042490	3.06421000000000010033	1.78295853697169004448	0.84109542973120998699	0.08873547799691000604	
50	0	7.87004000000000036863	6.38872999999999979792	9.15183999999999997499	-0.61719623957906000200	0.51647827912819999074	-0.11552770053378999537	
51	1	7.91474000000000010857	4.58659999999999978826	7.53429000000000037573	-1.04511822558103006919	0.23520325307347000887	-0.49303719822064001610	
52	1	7.90115000000000033964	6.42330000000000023164	4.67203000000000034930	0.24836200380812001320	-1.34632324553450999360	0.33226447536490999468	
53	1	7.86122999999999994003	4.62556000000000011596	10.72369999999999912177	-0.30099554755786001037	-0.67080826264679005444	-0.30370357598087999174	
54	1	7.90240000000000009095	6.46684999999999998721	1.33871000000000006658	0.31726589629222001765	-1.12201436425443001887	1.60718585824596993383	
55	0	9.45378000000000007219	7.21443000000000012051	3.12743999999999999773	0.59340008572025004785	0.90725681610996000703	-1.29431352133299992779	
56	0	9.43031000000000041439	9.08168000000000041894	9.06950999999999929457	0.60437276097186998225	0.59191260655096999965	0.16564187133728999757	
57	1	9.36546000000000056218	7.24683000000000010488	7.50680000000000013927	0.87657426277061001318	0.27343816245905000484	0.37856441927744999276	
58	1	9.58625999999999933721	9.08442999999999933891	4.64698000000000011056	-0.47176273606391000426	-0.15932219532055999500	-0.01299825157944000005	
59	1	9.42234000000000015973	7.34330999999999978201	10.71920000000000072760	0.04368199987041000015	-0.15698625991547998648	-0.14155152184055000419	
60	1	9.54494000000000042405	9.00810000000000066223	1.52133000000000007113	-0.22280012517841998876	0.51145100022970002573	0.16100989841878998732	
61	0	7.92391999999999985249	10.01989999999999980673	3.08766000000000007120	0.63620584827772996839	-1.89591552610879010565	0.91055427372221997562	
62	0	7.85871000000000030639	0.93629499999999998838	9.13321000000000005059	0.65677276646550997175	0.41032599422178001047	0.71410416564104994830	
63	1	7.84408999999999956287	10.05180000000000006821	7.55978999999999956572	0.16123842338300001242	-0.18150887201720999897	-0.38232760222505002279	
64	1	7.96952000000000015945	0.84977000000000002533	4.62697000000000002728	-0.71341121200216994769	0.36167001091438000238	1.84094249886675997985	
65	1	7.98102999999999962455	10.00609999999999999432	10.64809999999999945430	-0.36278220299648999969	0.46515982334411998256	1.25642248015357993474	
66	1	7.84590000000000031832	0.81955599999999995120	1.50933999999999990393	0.28052917165537999411	1.10158577081595998592	-0.10306019541508999737	
67	0	9.42334999999999922693	1.76960999999999990528	3.10471999999999992426	1.43020805726851008011	-0.05504321220754999910	-1.18161614166132000747	
68	0	9.39594999999999913598	3.71825999999999989853	9.06672999999999973397	0.88815586764993004198	-0.43208045234723002626	1.60908428289290994506	
69	1	9.48522999999999960608	1.83512000000000008448	7.57505999999999968253	0.04084695902130999756	0.19380256364930001367	0.11076541908055999308	
70	1	9.53870000000000040075	3.56408000000000013685	4.60397000000000033992	-0.45850330500879998841	0.86404541256863998111	0.24763499939128999494	
71	1	9.41496000000000066166	1.92646000000000006125	10.73670000000000079865	0.06398358430032999311	-0.16193025762047999483	-0.47037972669856997765	
72	1	9.56298999999999921329	3.56045999999999995822	1.46551999999999993385	-1.07190980675429003988	0.30381814789690997358	0.31193325643015001880	
73	0	11.09960000000000057696	4.53474000000000021515	3.00673000000000012477	-0.03917062300791000068	-0.11296456979482999428	1.13601687999125000594	
74	0	11.03090000000000081570	6.43189999999999972857	9.17087000000000074351	-0.93925823658679996608	0.83073333798278004014	0.35878081039099002369	
75	1	11.07489999999999952252	4.70922999999999980503	7.64505999999999996675	0.00511452811096999981	-1.47424845526438996757	-0.56563995521021004365	
76	1	11.08079999999999998295	6.35695000000000032259	4.61934999999999984510	-0.30670681482266998197	-0.76873666694798004073	0.86619633720837996282	
77	1	10.80879999999999974136	4.69929000000000041126	10.73550000000000004263	1.37366029135063993927	-0.80066042576759999250	0.37486827004700001842	
78	1	11.00409999999999932641	6.33643999999999962824	1.53475000000000005862	0.66105224520343996986	0.46024220389474002069	-0.49934993698139001905	
79	0	0.01316319999999999990	7.17184000000000043684	3.14394000000000017891	0.72770742735092996956	1.34915380907696991208	-0.86181719439297999052	
80	0	-0.05715479999999999866	9.07784999999999975273	9.15193999999999974193	-1.22086170695422002730	0.45324179746845000283	0.04151715235102999835	
81	1	-0.02779670000000000057	7.15890999999999966263	7.63754000000000043968	0.47489001386486001666	1.10819465036276998404	-0.33883383722583998443	
82	1	0.06368600000000000649	9.05058000000000006935	4.68958000000000030383	0.20433672302667998943	0.16434565201112000254	-0.33505419103556999261	
83	1	-0.07110679999999999779	7.37337000000000042377	10.74019999999999974705	0.21424859849703001280	-0.97461536623050004646	0.68847475211870001743	
84	1	0.09817819999999999325	9.03053000000000061220	1.60033000000000003027	0.24774969816406000600	-0.23084069565084999742	-0.71120852802208001098	
85	0	11.16629999999999967031	9.92559999999999931219	3.05594000000000010075	-0.66729881196858997772	0.72815669079873002190	0.68129804895217005445	
86	0	11.09319999999999950546	1.02703999999999995296	9.21817000000000064119	-1.75733390255117005729	-1.45859254573590990667	-0.03995053511730999735	
87	1	11.01689999999999969305	10.08169999999999966178	7.54661000000000026233	0.43395229524194001147	-0.24062019790541000486	0.75555946579462995860	
88	1	11.03800000000000025580	0.82698499999999997012	4.67116000000000042292	0.49202271308454997856	0.64352452529273995729	-0.49782133993555999218	
89	1	10.93839999999999967883	9.95390000000000085834	10.80109999999999992326	0.70995323649748998118	0.56282960927003999885	-1.25207449559510997084	
90	1	11.01980000000000003979	0.91393699999999999939	1.54912000000000005251	0.21991983084565999707	-0.29980941898477997398	-0.41352307537545002214	
91	0	-0.09575229999999999853	1.94334000000000006736	3.06040000000000000924	1.56085499017014006640	-1.60013331718474005605	-0.36523925627325998233	
92	0	-0.04660179999999999878	3.73496000000000005770	9.30658000000000029672	-0.85129568242826003654	-0.80902588817627996143	-0.66816793306081001536	
93	1	-0.06264269999999999561	1.85975000000000001421	7.62490000000000023306	-0.25705495421935997680	1.09400206224131002486	-0.07314103043408000382	
94	1	0.02141929999999999876	3.70895999999999981256	4.62791999999999958959	0.06413960714482999648	0.04374933413557000050	-0.20067055473778000474	
95	1	-0.05630969999999999726	1.86402000000000001023	10.82010000000000005116	-0.19706887457863001001	0.34336232891318002602	0.32891607860506000272	
96	1	0.03773499999999999771	3.72255000000000002558	1.41406000000000009464	-0.19857420471269998652	-0.43688670456759998162	0.15929193884108999724	
Energy
-80522.16971120299422182143
PlusStress:	xx	yy	zz	yz	xz	xy
6.56373516061208306382	14.55633415684126141798	6.34603643322431576479	-7.50012166948487202234	-4.37148233813303921380	2.28589944037547887490
END_CFG

BEGIN_CFG
Size
96
Supercell
12.63000752876556	0.0	0.0
0.0	10.924001399904874	0.0
0.0	0.0	12.407713870912918
AtomData:	id	type	cartes_x	cartes_y	cartes_z	fx	fy	fz
1	0	1.54753000000000007219	4.56102000000000007418	3.07112000000000007205	0.88627308632876000694	-0.04487190821767000209	0.96049372086167994489	
2	0	1.55889000000000010893	6.38708000000000009067	9.16315999999999952763	-0.02909022666223000028	0.54745215652141998586	0.70270325056108995376	
3	1	1.66022000000000002906	4.61089999999999999858	7.67290999999999989711	-1.53951636915360001723	-1.05128965120389006316	-0.67947118750229995587	
4	1	1.57472999999999996312	6.37558999999999986841	4.70031999999999960949	-0.40180392183134000517	-0.35916487165799998449	-0.25736751968820997805	
5	1	1.59322000000000008058	4.60008000000000016882	10.85779999999999922977	-0.62596693664136004998	-0.32922984305677999162	-0.97761298099177995624	
6	1	1.63471000000000010743	6.34548000000000023135	1.38788000000000000256	-0.40164211629766999323	-0.21364827741750999635	0.85269231364861997058	
7	0	3.10426000000000001933	7.20540999999999964842	3.10388999999999981583	0.64143919904234003582	1.01678433288565006620	-0.22688726056527000474	