BEGIN_CFG
Size
96
Supercell
12.677457906215766	0.0	0.0
0.0	10.924339954889438	0.0
0.0	0.0	12.527751818225806
AtomData:	id	type	cartes_x	cartes_y	cartes_z	fx	fy	fz
1	0	1.55082999999999993079	4.67860999999999993548	2.96245000000000002771	0.27796891505436999159	-1.37431791645575995808	0.55147585865909998226	
2	0	1.63484999999999991438	6.27878999999999987125	9.21685000000000087539	-0.55386083795742002689	0.55569321088948997467	0.56405735794870004440	
3	1	1.50943000000000004945	4.45359999999999978115	7.75201000000000028933	0.01942248044625000114	-0.10122491952237000490	-0.75005286027824003003	
4	1	1.53591999999999995197	6.49671999999999982833	4.48366000000000042292	-0.01970627612106999951	0.03010483945231999872	1.13323511532339993302	
5	1	1.58322000000000007169	4.43050999999999994827	10.96209999999999951115	-0.17404307542232999584	0.75477404977467998926	-1.16030417697620991113	
6	1	1.57119000000000008654	6.44064999999999976410	1.44544999999999990159	0.15564113624296999072	0.88481145477350997552	-0.23643047959402999081	
7	0	3.20683000000000006935	7.40756000000000014438	3.07058000000000008711	-1.33933028130352993479	-1.50638759225000007369	-1.69398094967750001416	
8	0	3.21696999999999988518	9.05864000000000046953	9.21019000000000076511	-0.39823119252436001148	-0.38117281712980999320	1.00159625181115008452	
9	1	3.27753000000000005443	7.19324000000000030042	7.59769000000000005457	-0.55364634168268000991	0.27732668993630998910	0.63651707810381996655	
10	1	3.06051999999999990720	9.20504000000000033310	4.49617999999999984340	0.45981619573089999031	0.75182514822210000371	1.18406069757401999354	
11	1	3.15213000000000009848	7.22215999999999969106	10.80540000000000055991	0.61104243182733997131	-0.05899424676105000098	-0.38662535990657997953	
12	1	3.16223000000000009635	9.14694000000000073669	1.48496000000000005770	0.17029001569730001231	0.39218553606706002546	-1.09759738051926003521	
13	0	1.48604000000000002757	10.07380000000000030980	2.90195999999999987295	0.51614971985755997430	0.69196672612092002819	1.02960958804547009215	
14	0	1.60789000000000004142	0.82448200000000004817	9.27035000000000053433	-0.83793284803468004451	0.79939325146532003163	0.48816188156082002125	
15	1	1.60146999999999994913	9.99217999999999939575	7.70908000000000015461	-0.03681528734271000136	-0.62052630305722999982	-0.41449284212490999924	
16	1	1.49686000000000007937	1.00417000000000000703	4.52568999999999999062	0.01412410513457000062	-0.71606451179708996424	0.80142284778048999971	
17	1	1.62593999999999994088	10.01249999999999928946	10.89600000000000079581	0.09621713834462000681	-0.75313015887223999645	-0.50362228908532002958	
18	1	1.59173000000000008924	1.00977000000000005642	1.40474999999999994316	-0.15338977670740999715	0.21008270770757001000	0.17729220095007000579	
19	0	3.10232000000000018858	1.91642000000000001236	3.09253000000000000114	1.17439155268109995944	0.17729151038466001156	-1.36922307725309000404	
20	0	3.09926000000000012591	3.61127999999999982350	9.28975999999999935142	1.42592076945717005643	-0.60056558233531998070	-0.57837938904326002820	
21	1	3.05024000000000006239	1.71493000000000006544	7.65226000000000006196	0.84164127044141001655	0.87864727930052000104	0.06794728175379000090	
22	1	3.18130999999999986017	3.71405999999999991701	4.70101000000000013301	-0.54238039375274005316	0.38655033577760000707	-1.12765321315298994165	
23	1	3.13831000000000015504	1.79317999999999999616	10.80860000000000020748	0.28618335538722000644	-0.08461208029755000470	0.52957735833259000913	
24	1	3.14808000000000021146	3.70500000000000007105	1.39104999999999989768	-0.00589707868712999964	0.05829501824873999788	0.96513148582029995026	
25	0	4.74246999999999996334	4.59923999999999999488	3.02485999999999988219	-0.17586825624708998794	-0.15273269522231999740	0.58323262803757003336	
26	0	4.82336999999999971322	6.29201000000000032486	9.23452999999999946112	-0.98207537733153005277	0.61400592598596004379	0.19143762050704998812	
27	1	4.76738000000000017309	4.53091000000000043713	7.64616000000000006764	-0.28131594228174000571	-0.82732788350470998218	0.50574514110635004904	
28	1	4.73883000000000009777	6.46603999999999956572	4.58844999999999991758	0.64845508818510000371	-0.11915615459370000606	-0.04295428072330000069	
29	1	4.86554999999999981952	4.49587999999999965439	10.81380000000000052296	-1.15204533185371005288	-0.08841125505107999549	0.22559769136120000343	
30	1	4.70570000000000021600	6.41502999999999978797	1.43715999999999999304	0.32403365668396999499	0.18053760723254000387	0.03905165038633000296	
31	0	6.34546999999999972175	7.40301000000000009038	2.94894999999999996021	-1.12920274468821002500	-0.75173642886324998358	1.79109600544737990191	
32	0	6.36826999999999987523	9.00901999999999958391	9.29462999999999972545	0.25254864888771000331	0.77089898578886995040	0.01127364188099000061	
33	1	6.38504000000000004889	7.18789999999999995595	7.66591999999999984539	0.17578166501017000733	0.18717634864981000375	0.25932058493120002662	
34	1	6.33650000000000002132	9.13738000000000027967	4.64273999999999986699	-0.10547587900223000246	0.62835283528963004063	-1.08205104048316003151	
35	1	6.31721000000000021402	7.22855999999999987438	10.83929999999999971294	0.49853257029183001281	-0.54479099361279004210	0.33951934879110001742	
36	1	6.34194999999999975415	9.17467000000000076909	1.37918000000000007255	-0.74379617014136001352	0.38332889556897997707	-0.30820202116074002507	
37	0	4.75455000000000005400	10.10110000000000063380	2.98937000000000008271	-0.08926062104536000574	-0.23182328952782998988	0.14748699909462001378	
38	0	4.69737000000000026745	0.89059399999999999675	9.23390000000000021885	1.10355677818799002843	-0.03790121098063999744	1.10145312966130992649	
39	1	4.88269999999999981810	10.01900000000000012790	7.77132999999999984908	-0.93648912241488002639	-0.75858285962282001602	-1.22950868356361997513	
40	1	4.72972999999999998977	0.92218400000000000372	4.60949999999999970868	0.04607498573565999705	0.41449032315153000461	-0.01823612148597000132	
41	1	4.76351000000000013301	9.93713999999999941792	10.88449999999999917577	-0.12548650750264001008	0.28923227397583001208	-0.72300391734701996427	
42	1	4.76823999999999958987	1.10524000000000000021	1.45958999999999994301	-0.36927002557330002031	-0.82976863617031004772	0.41010347508049999066	
43	0	6.40327999999999963876	1.86665999999999998593	3.06836000000000019838	-2.09414731640169016202	0.73588043652571000219	-0.25695030451007000449	
44	0	6.33227999999999990877	3.52253999999999978243	9.25399999999999955946	0.35750790085238998151	0.70856414225009001218	-0.82666190549278995015	
45	1	6.29832000000000036266	1.74763000000000001677	7.63013999999999992241	0.04729373197193999928	-0.01583715831202999955	0.56358691733437005222	
46	1	6.33758999999999961261	3.67350999999999983103	4.68405000000000004690	-0.05623606372193999670	0.42785539504560998747	-0.84169676254085001865	
47	1	6.35168999999999961403	1.76320999999999994401	10.86280000000000001137	-0.91740684291859997401	-0.03868547274049000118	0.11582994515297000138	
48	1	6.34402000000000043656	3.61102999999999996206	1.51578999999999997073	-0.34396416774402999161	0.88474100079174999856	-0.80823990712581994522	
49	0	7.86617000000000032855	4.64093999999999962114	2.99737000000000008981	0.62725548835739997067	-0.74377247034433002781	1.51414543621432007292	
50	0	7.93381999999999987239	6.24146000000000000796	9.28375999999999912404	-0.87118458937754994498	0.57749611385485000170	-0.64515767122969003289	
51	1	7.90376999999999974023	4.41819999999999968310	7.63370000000000015206	0.35966377878757999076	0.03003935818490999915	0.82810873591806999361	
52	1	7.90256999999999987239	6.51065999999999966974	4.60752999999999968139	-0.27699204256519999179	-0.45991599381887998677	-0.45517630517138002455	
53	1	7.90540999999999982606	4.45200999999999957879	10.84270000000000067075	0.12716652376709999817	-0.19961622136970000319	0.16202571024379000542	
54	1	7.80586999999999964217	6.38363999999999975898	1.47771000000000007901	0.71027913637537998248	0.21566125309997999371	-1.77196823927596991410	
55	0	9.42256000000000071282	7.28965999999999958447	2.95436999999999994060	0.96113258954449998228	1.40111219944055997999	0.30645748947918999283	
56	0	9.47883000000000031093	9.05045999999999928320	9.21630000000000038085	0.55278438292034004498	0.11026178264090000236	0.34517982700193000634	
57	1	9.46739999999999959357	7.18177999999999983061	7.71678999999999959414	0.30277329479868997364	0.07890225904856999761	-0.48525015601951998478	
58	1	9.52485000000000070486	9.23518999999999934403	4.44313999999999964530	-1.18914468821359009532	-0.54528407188196004185	0.46891633099306001542	
59	1	9.46265999999999962711	7.23406000000000037886	10.80109999999999992326	0.51167022492263003475	-0.25095725599849999510	0.20816667304711999886	
60	1	9.38238999999999911950	9.12223000000000006082	1.29245000000000009877	0.23961951926854999084	0.26709505763474000739	0.83574070979252002012	
61	0	7.82873999999999981014	10.12289999999999956515	2.93183000000000015817	1.34538237685104000718	-0.17380377687466999626	0.62106976095443000574	
62	0	7.86557999999999957197	0.85651699999999997281	9.31705999999999967542	0.62778730155579998140	-0.16829966592195999553	-0.40394605157437002418	
63	1	7.88727999999999962455	10.02239999999999930935	7.69238999999999961688	0.03735248888693999680	-0.60598135680228004674	-0.02019766139446000155	
64	1	7.88419000000000025352	1.00978999999999996540	4.57591999999999998749	1.09893817659670989251	-0.81136378070443004873	0.57980445315260997763	
65	1	7.95077000000000033708	9.99591000000000029502	10.85210000000000007958	-0.21756892699536001246	-0.63048349472927001091	0.09237337507465999409	
66	1	7.92616000000000031633	1.09980999999999995431	1.38910000000000000142	-0.19734847757960999326	-0.88921931364904005513	-0.00592492510855999969	
67	0	9.47485999999999961574	1.93381000000000002892	2.98437000000000018929	0.18075926191307001289	-0.05414936878448999708	-0.14205294864576001324	
68	0	9.50778999999999996362	3.55157999999999995921	9.29917000000000015802	0.08839150804532999728	0.08804802583970999796	-0.60116994020694003442	
69	1	9.46776000000000017565	1.56342000000000003190	7.75257000000000040529	0.58845129996737000067	1.66299490790391990558	-0.06657089563507999352	
70	1	9.46879999999999988347	3.73706000000000004846	4.59208999999999978314	0.03427716725820999927	0.08985302252717000671	-0.37152308672818001867	
71	1	9.55544000000000082196	1.77072000000000007169	10.88649999999999984368	-0.38186932142614998797	-0.20906409822040000757	-0.00655522452685000038	
72	1	9.52168999999999954298	3.68240999999999996106	1.38544000000000000483	-0.67040220027329000541	0.81025930679363000753	0.24862852908368998639	
73	0	11.05540000000000055991	4.63971000000000000085	2.97983999999999982222	-0.32850031486463998620	0.25546427275520000588	0.89251585379578002311	
74	0	11.09120000000000061391	6.26506000000000007333	9.24075000000000024158	0.21193251565550000337	1.26548684554485002529	0.35122240438906998650	
75	1	11.03930000000000077875	4.48920999999999992269	7.66427000000000013813	0.26846590616103999105	-0.58713510291465997870	0.40342168621294000053	
76	1	11.02469999999999927809	6.49249999999999971578	4.62685999999999975074	0.04954094244921999901	-0.21443363170002999185	-0.81532934467901996278	
77	1	11.10650000000000048317	4.58575999999999961432	10.93490000000000073044	-0.39312881876952998628	-0.82421982605511001641	-0.79720036150808004649	
78	1	11.09029999999999915872	6.41628000000000042746	1.43625000000000002665	-0.47454565042970997535	0.38625016230470998746	-0.53354849241172996877	
79	0	-0.07983049999999999868	7.41460999999999970100	2.98777999999999988034	0.31845890204553001235	-0.58943465634833003275	-0.29431497542932999467	
80	0	-0.00344122999999999998	9.10641999999999995907	9.30921000000000020691	0.66766153724294996508	-0.93772307773353003046	-0.50388714711556004122	
81	1	0.00729606000000000005	7.32059999999999977405	7.68041999999999980275	0.11895317235228999864	-0.64370076749362004076	0.30649452131512000541	
82	1	-0.13530200000000000560	9.24086999999999925137	4.51844999999999963336	0.16161885999891001386	0.11048376511584999393	-0.19592782879810000107	
83	1	0.07267750000000000599	7.19477999999999973113	10.79989999999999916724	-0.35193257488618001627	0.10413828876828000458	-0.13201997050857000593	
84	1	0.01985429999999999834	9.14522999999999974818	1.30605999999999999872	-1.10527461846564989401	0.22913902951731998647	0.27705012427463998614	
85	0	10.98150000000000048317	10.12540000000000084412	2.89397999999999999687	1.64713541404370999999	0.19153238521099999470	-1.09011066968081005157	
86	0	11.13260000000000005116	0.83325700000000002543	9.33145000000000024443	-0.69027818471714996740	-0.82737826182481000181	0.35988766592816001655	
87	1	11.13530000000000086402	10.01019999999999932072	7.65036999999999967059	-0.33993349976022002590	-0.38624616775344999819	0.69054708389855001816	
88	1	11.06060000000000087539	1.06991999999999998217	4.49181000000000008043	-0.06163855974737000171	-0.81350588169236004443	0.60449011294163002006	
89	1	11.06150000000000055422	9.82231999999999949580	10.86979999999999968452	-0.07693959866909999556	1.01921149019838996885	-0.01648132088915000085	
90	1	11.12139999999999950830	1.11688999999999993840	1.35655999999999998806	-0.54421263490059001988	-0.68218181907575003997	0.31249549232323997616	
91	0	-0.01661580000000000001	1.94649999999999989697	2.99991999999999991999	-0.17082941349461999714	0.45927869608991001016	-1.07849601666125005650	
92	0	-0.05378480000000000066	3.54854000000000002757	9.31949000000000005173	0.35730456431703999653	1.09101601568542005971	-0.35805276553602000122	
93	1	-0.03833519999999999983	1.67887999999999992795	7.73688999999999982293	0.24733497030502998859	0.77995160214431002998	-0.21401272988444000611	
94	1	-0.03579340000000000299	3.80976999999999987878	4.55952999999999963876	0.18344225564450999943	-0.38064016681960000099	0.06618099162625000476	
95	1	0.09505070000000000185	1.81821999999999994735	10.87480000000000046612	-0.66413204448712004346	-0.98119476014920004037	0.32577654993355997792	
96	1	-0.11319600000000000495	3.76323000000000007503	1.38256000000000001116	0.99500224588516994473	-0.09423261334056000360	0.24522239063255998892	
Energy
-80523.66859603249758947641
PlusStress:	xx	yy	zz	yz	xz	xy
-4.43622196297205473314	6.20904265913119601805	-7.38267955417918830818	-8.37997027464753152515	-1.26369589601399900936	-0.60097145171858079582
END_CFG

BEGIN_CFG
Size
96
Supercell
12.632279520636915	0.0	0.0
0.0	10.95154100554057	0.0
0.0	0.0	12.151992738725234
AtomData:	id	type	cartes_x	cartes_y	cartes_z	fx	fy	fz
1	0	1.54564999999999996838	4.52219999999999977547	3.12821999999999977859	0.80219495277454000437	1.14388348690715990763	0.26315456968320000142	
2	0	1.59448999999999996291	6.36197999999999996845	9.11650999999999989143	-0.27734360859540002631	0.09158043124365999876	0.56209363691879998814	
3	1	1.53631999999999990791	4.57615999999999978343	7.54077999999999981640	0.16813897728251001040	-0.45038570643823999662	0.21890977224204999363	
4	1	1.58706999999999998074	6.43304999999999971294	4.70024999999999959499	-0.12314332051182000360	-0.56106486925809995192	-0.17830991398699000405	
5	1	1.52549000000000001265	4.52881000000000000227	10.75290000000000034674	0.11402817722505000086	0.11350654448279999531	-0.59149530283728002367	
6	1	1.71636999999999995126	6.34984999999999999432	1.52255000000000006999	-0.89078344898968997434	0.15829814405907000063	0.46871484164913002068	
7	0	3.21724999999999994316	7.24594000000000004746	3.15589999999999992752	0.00065711458106000001	0.58971940170251002655	-0.68507353425788997114	
8	0	3.14121000000000005770	9.07794999999999951967	9.20475000000000065370	0.44247720048348998523	0.75355865534402999284	-0.42793186764215002116	
9	1	3.15004000000000017323	7.34705000000000030269	7.58190000000000008384	0.07049223008914000388	-0.38237392612360998623	-0.18831704451149999802	
10	1	3.13804999999999978400	9.13776000000000010459	4.61965999999999965553	0.46571468202989002583	-0.04121066448591999970	0.94060629594443001533	
11	1	3.17286000000000001364	7.19245000000000000995	10.77679999999999971294	-0.49314864129746999177	0.77262933826685997740	-0.30342958478590997817	
12	1	3.21117000000000007987	9.09633999999999964814	1.54671000000000002927	-0.18820596357801000487	0.00084463699270999999	0.15169689792637000569	
13	0	1.61226000000000002643	10.07959999999999922693	3.10417999999999993932	-0.38238533166508997807	0.14420790455432000443	-1.41363779590694993438	
14	0	1.61885999999999996568	0.95726299999999997503	9.14067999999999969418	-1.01948367731330002961	-0.73821456482928005105	0.14297495309398000618	
15	1	1.62210999999999994081	10.10779999999999922977	7.56289999999999995595	-0.15536947037915999070	-0.53576008662704999175	0.25894205641492001879	
16	1	1.57810000000000005826	0.95080900000000001526	4.64695999999999997954	-0.19829008419887000914	-0.01403517055485999955	0.23850255710557999311	
17	1	1.55203000000000002068	10.08409999999999939746	10.67590000000000038938	-0.08118248029605999727	-0.43340247617881000330	0.33156242629623999818	
18	1	1.62271999999999994024	0.97289000000000003254	1.46988999999999991886	-0.14237509980214999028	-0.06381398626437000121	0.91231380717855004026	
19	0	3.18495000000000016982	1.89026999999999989477	3.14211000000000018062	-0.18077837908927998911	-0.31167972819683997798	-1.05208778303899008755	
20	0	3.13409000000000004249	3.65161999999999986599	9.15107000000000070372	-0.28352906323638998876	-0.40167250050874997447	0.63320019885860001629	
21	1	3.20624999999999982236	1.78401999999999993918	7.61730000000000018190	0.24456211132030000743	0.40018242014499000314	-0.32457006470765997763	
22	1	3.15373999999999998778	3.69038999999999983714	4.71255999999999986017	0.04959520709178000253	-0.07554349662994999659	0.15933370874019001096	
23	1	3.17047999999999996490	1.81177000000000010260	10.74390000000000000568	0.18512031749392998670	0.24562966725835000403	0.02231364223899999846	
24	1	3.24237000000000019639	3.74266999999999994131	1.57970000000000010409	-0.53387494185077999376	-0.63988781491199997475	-0.18215898000990998762	
25	0	4.79211999999999971322	4.56770000000000031548	3.16062999999999982847	0.01002789644559999929	0.19845467074844000410	0.28918314118559002024	
26	0	4.71420999999999956742	6.39794000000000018247	9.15029000000000003467	-0.06013551559744000075	-1.18641162166213010032	-0.17247450080139001272	
27	1	4.69855999999999962569	4.48794999999999966178	7.61847000000000029729	0.20644148750543001025	0.70013330496839998318	-0.46166278369494001543	
28	1	4.76832000000000011397	6.39756999999999997897	4.77594999999999991758	0.02006009443508000034	-0.20496255463397999863	-0.10442163793903000424	
29	1	4.71098999999999978883	4.59820999999999990848	10.75680000000000013927	-0.23095639410363000277	-0.29539996052350997457	-0.15691406030492000001	
30	1	4.85935999999999967969	6.35796000000000027796	1.59614999999999995772	-0.94446133196356996109	0.09833874097505000689	-0.37252750427615999307	
31	0	6.28652000000000032998	7.31355999999999983885	3.16606999999999993989	1.20154690729414004302	1.07080074045870010657	0.24553123674770999108	
32	0	6.32409999999999961062	9.05494000000000021089	9.16912999999999911438	0.01521242426638000009	0.88131105475194004839	-0.75831317525654995393	
33	1	6.34114999999999984226	7.21007999999999960039	7.63884000000000007446	-0.13030780431648000817	0.61957239637395999932	-0.91016150103708004515	
34	1	6.36169999999999991047	9.29020000000000045759	4.68304000000000009152	-0.18326773069047000431	-0.97403471218279003008	-0.08321065289711999935	
35	1	6.28066000000000013159	7.24723999999999968225	10.69689999999999940883	0.44231519566756999362	0.14612531312938001338	0.77626485890542995527	
36	1	6.27620999999999984453	9.20134000000000007446	1.52475999999999989321	0.08638580702652999543	-0.80263607856691998599	0.04601380635621000331	
37	0	4.74898000000000042320	10.08810000000000073328	3.12179999999999990834	-0.22258528527791998641	-0.08365413695010999462	0.15445100979143999709	
38	0	4.79100000000000036948	0.87571699999999996766	9.20270000000000010232	-0.48757120196818998226	0.21353276577927998714	-0.30123356642359000457	
39	1	4.72529000000000021231	10.00050000000000061107	7.56325000000000002842	0.10105113104358999510	-0.08058060154498999927	0.88674793518728001196	
40	1	4.72942999999999980076	1.00025999999999992696	4.70655000000000001137	0.37402764142396000002	-0.48238408579614000526	-0.10530884235119999937	
41	1	4.76438999999999968082	10.00220000000000020179	10.76430000000000042348	-0.12127077087232999986	-0.19102056142632001245	-0.12618385190400999152	
42	1	4.74976000000000020407	0.90196900000000002073	1.55197999999999991516	-0.20753503475175999471	0.52997685761473001254	-0.26068852906850997764	
43	0	6.36430000000000006821	1.80262999999999995460	3.07651999999999992141	-0.57540537312116002422	0.34011253411848002548	0.10480512464204999601	
44	0	6.26501999999999981128	3.63362000000000007205	9.19998999999999966803	0.76673964797911997593	0.02974404994710999964	-0.71952962623455996027	
45	1	6.33175000000000043343	1.77245999999999992447	7.56674999999999986500	-0.06379616592476000658	0.19340211795000000761	0.84654419651938994651	
46	1	6.36983000000000032514	3.59853999999999984993	4.66797000000000039677	0.11142515537731000064	0.13904133981478999926	0.42406863929067001306	
47	1	6.35979000000000027626	1.90393999999999996575	10.78940000000000054570	-0.39621167286001002239	-1.10503821548199998581	0.02111612620307000074	
48	1	6.40538000000000007361	3.64699999999999979750	1.59301000000000003709	-0.72664917496357994686	0.07339129425647999971	-0.75182095004641003033	
49	0	7.92224000000000039279	4.58647000000000026887	3.11661000000000010246	-0.46640102033109998025	0.70883748650694000659	-0.18933404119447000413	
50	0	7.91999999999999992895	6.37023000000000028109	9.17088999999999998636	-0.14653334035824999715	-0.19725376295936999926	-0.71651654190917002385	
51	1	7.86374999999999957367	4.51742000000000043514	7.60658999999999974051	0.15169119574508999060	-0.15354084085694999495	0.35933633210144999559	
52	1	7.91594999999999959783	6.39489999999999980673	4.74500000000000010658	-0.21281243988972001202	0.03601220405018999704	-0.52264244622925004613	
53	1	7.87638000000000015888	4.57568000000000019156	10.73060000000000080433	-0.02006369426603999903	-0.27065376149048997467	0.45813676722809998365	
54	1	7.77981000000000033623	6.45322999999999957765	1.47855000000000003091	0.85400519059024004864	-0.36504942316110999823	1.02681647525351005257	
55	0	9.47193000000000040473	7.27777999999999991587	3.12015000000000020108	-0.62275394346076995422	1.11510298070124003189	-0.22623475579748000830	
56	0	9.53087000000000017508	9.09354000000000084469	9.11082000000000036266	-1.06587300649811989040	0.76041332511709003317	-0.77639886160937998660	
57	1	9.48123000000000004661	7.25410000000000021458	7.48953999999999986414	-0.05646131136890000096	0.18587602136024999888	0.63857027943918998059	
58	1	9.41362999999999949807	9.18393000000000014893	4.67644000000000037431	0.49801146540362001280	-0.57414997470035000759	-0.44119361782206001354	
59	1	9.49417000000000044224	7.33751999999999959812	10.65099999999999980105	0.31774614625559000070	-0.64493640734988999519	0.74282900718929001371	
60	1	9.43507999999999924512	9.08981999999999956685	1.49517999999999995353	0.42754991774250000747	-0.26153315855844000426	-0.10322229670697999349	
61	0	7.92391000000000023107	10.03870000000000040075	3.01752000000000020208	-0.47990968771462000353	1.05997326517648993160	0.80565505810211002213	
62	0	7.87366999999999972459	0.82097500000000001030	9.21279000000000003467	0.04913265857489999833	1.41848412470272999819	-0.10650175056716999766	
63	1	7.87188999999999960977	10.10360000000000013642	7.52055999999999968963	0.13978023070313000398	-1.16766923445577996965	0.83111781953377994459	
64	1	7.93834999999999979536	0.95332799999999995322	4.59384000000000014552	0.29290382015826998963	-0.38454601212348998862	0.28617682710867997642	
65	1	7.91687999999999991729	9.93499000000000087596	10.73900000000000076739	0.10819412027635999518	-0.03332234076790999838	-0.08065166259672999771	
66	1	7.94489000000000000767	0.95680699999999996308	1.45022999999999990806	-0.13169038738954000345	-0.23218508163257001176	0.22258543006327000113	
67	0	9.51680999999999954753	1.87963999999999997748	3.04306000000000009820	-0.44583505090162001139	-0.75730727857465995889	-0.47530245241508001230	
68	0	9.45509000000000021657	3.56190000000000006608	9.22574000000000005173	-0.56338606777774002943	1.23878810069689992979	-0.58794097907178000106	
69	1	9.41507000000000005002	1.81692000000000009052	7.68470000000000030838	-0.21664870835319999243	-0.45956892150565997746	-1.08403152940670999271	
70	1	9.47527000000000008129	3.68807000000000018147	4.60892000000000034987	0.32366415913926999126	-0.32703675382188002185	1.08949755051557994889	
71	1	9.50028000000000005798	1.74914999999999998259	10.76050000000000039790	-0.72137530261894999839	-0.05035719446443000236	0.71787299767639001224	
72	1	9.44571999999999967201	3.72401999999999988589	1.51930000000000009486	0.71380279051845996197	0.15621665667508999320	-0.17926940480819000823	
73	0	11.07089999999999996305	4.60554000000000041126	3.13732999999999995211	-0.04596655069781999808	0.42636666205556000842	-1.00857007395532005667	
74	0	11.03880000000000016769	6.33776999999999990365	9.09828000000000081116	-0.04239321202101999780	0.36848625072494001209	0.09871105139682999352	
75	1	10.98010000000000019327	4.47989999999999977121	7.59128000000000024983	0.09830233839238000648	0.05746575149654999798	-0.24559055684903000061	
76	1	11.08530000000000015348	6.47607999999999961460	4.70432999999999967855	0.25460500406190000877	-0.29390992190344000790	-0.40175859386619999780	
77	1	10.99460000000000015064	4.54811000000000031918	10.72509999999999941167	0.60266674048168999978	0.02881967549074999912	0.19981170016022001268	
78	1	11.02679999999999971294	6.48841999999999963222	1.49954000000000009507	0.64788077412413003220	-0.65820878677998995165	0.58436079444505995006	
79	0	0.06537709999999999355	7.37478999999999995651	3.08836000000000021615	-0.63286352485936003820	-1.05741767974042999434	-0.82389713263961994461	
80	0	-0.03264910000000000034	9.13641999999999931958	9.08755000000000023874	0.60951304135174000365	0.36212016259264001583	0.41800321369271997707	
81	1	0.00161578999999999998	7.33338000000000000966	7.55447999999999986187	-0.01116897099380999986	-0.52317947704791001318	-0.21191496512222998683	
82	1	0.03029499999999999901	9.15109999999999956799	4.61455999999999999517	-0.38905525744334001903	0.51828343384175001862	0.50149792401861004176	
83	1	0.00507187000000000002	7.23775000000000012790	10.66910000000000025011	-0.12081214497544000286	0.48430208978208999504	-0.07629433189077999833	
84	1	0.03918080000000000174	9.18046999999999968622	1.47324999999999994849	0.01694837483524000085	-0.05949119894249999679	0.47910200899978000466	
85	0	11.00919999999999987494	10.05949999999999988631	3.05451000000000005841	0.55038307025597998923	-0.53628147995557995387	-0.38883113340859998264	
86	0	10.97059999999999924114	0.86412400000000000322	9.16910000000000025011	1.74011367932203997455	0.07203640689877000014	-0.00935933426287999942	
87	1	11.02399999999999913314	10.14889999999999936620	7.50565000000000015490	0.18383210061753998965	-1.08554026105482992470	0.20000487282646001175	
88	1	10.96219999999999927809	0.84587100000000003952	4.65068999999999999062	0.58557445117832995773	0.70973257785250998264	-0.08847047193498999706	
89	1	11.09759999999999990905	9.97413000000000060652	10.74600000000000044054	-0.40227000744063001747	0.08505530781513000183	-0.39911768916846002142	
90	1	11.02280000000000015348	0.87199300000000001809	1.37294999999999989271	0.23840585629787000577	0.44910329977263002688	1.21765078262856007996	
91	0	-0.05870680000000000343	1.81065000000000009273	3.08153999999999994586	0.49418897974066000600	-0.26370744552686997686	-0.50721103036869996661	
92	0	-0.04114439999999999764	3.62728999999999990322	9.13152999999999970271	0.09748234010459000398	0.28804701392076997868	0.44700607895316002427	
93	1	-0.04779989999999999933	1.81451999999999991076	7.57969999999999988205	0.11625481988182999327	-0.14754584136196999267	0.06070380550481999787	
94	1	-0.04789380000000000026	3.58470000000000021956	4.70835000000000025722	0.08257905583659000404	0.27504203304939001118	-0.11688351866127999479	
95	1	-0.05090800000000000186	1.78607000000000004647	10.69330000000000069349	0.31698806986933997232	0.27241050462684002209	0.16692889840919999944	
96	1	-0.00283788000000000009	3.66992999999999991445	1.55668999999999990713	-0.29609415372088998541	-0.16539338823721000393	-0.25281888818337000524	
Energy
-80525.40077524249500129372
PlusStress:	xx	yy	zz	yz	xz	xy
5.02194627221935796513	1.82588727202585987541	3.91493317360437753649	2.50985284647384965240	2.47098540282893175402	-0.29026408410753840039
END_CFG

BEGIN_CFG
Size
96
Supercell
12.722651813640553	0.0	0.0
0.0	10.948044255285641	0.0
0.0	0.0	12.597658086247456
AtomData:	id	type	cartes_x	cartes_y	cartes_z	fx	fy	fz
1	0	1.71587000000000000632	4.48366000000000042292	2.84231999999999995765	-0.63259927519104997007	-0.44427027519674000544	1.58331882738404994271	
2	0	1.42324999999999990408	6.45376999999999956259	9.21650999999999953616	2.01044074796919014503	-1.02255601708363008662	1.12352887277900004293	
3	1	1.58631999999999995232	4.65395000000000003126	7.53824000000000005173	-0.79855741336646002271	0.34989532820848001649	0.32627762701398999035	
4	1	1.60348000000000001641	6.17177000000000042235	4.65744000000000024642	-0.32899357075734997347	0.53519265507796998094	-0.90152144761333996570	
5	1	1.60260000000000002451	4.60949999999999970868	10.82520000000000059970	-1.18332738992038999370	0.11001151548559000293	-0.97238735429065004112	
6	1	1.65322999999999997733	6.36838000000000015177	1.41362999999999994216	-0.27573620300112999804	-0.11235530017983000328	-0.07197115536793000090	
7	0	3.09290999999999982606	7.20383999999999957708	3.10779000000000005244	1.43155130157453003292	1.25898166543542000539	-0.61179729985974995454	