BEGIN_CFG
Size
96
Supercell
12.67514295559814	0.0	0.0
0.0	11.001819450236212	0.0
0.0	0.0	12.072320738157732
AtomData:	id	type	cartes_x	cartes_y	cartes_z	fx	fy	fz
1	0	1.50696999999999992070	4.51525999999999960721	2.85533999999999998920	-1.64636347883476008569	0.77484717083798004822	4.79378633797966013930	
2	0	1.70395000000000007567	6.38272999999999957055	9.24099999999999965894	-0.93777708186643005117	1.38856282136834008334	-1.35473459859954004081	
3	1	1.62586000000000008292	4.60360999999999975785	7.62260000000000026432	0.46126068038665002380	-0.38860141895708000259	0.29778556281326001853	
4	1	1.59372000000000002551	6.31081999999999965212	4.64189999999999969305	0.05781156440644000249	-0.24884232769545999719	-0.50307345847990003751	
5	1	1.62681000000000008932	4.59841999999999995197	10.75949999999999917577	-0.60908147271464996297	-0.58266813683573004390	0.52574128099432004824	
6	1	1.44301999999999996938	6.47797000000000000597	1.53563000000000005052	0.50733786968192995381	-0.50077452208779005272	-1.14556978671633991063	
7	0	3.11249999999999982236	7.27606999999999981554	3.00526999999999988589	0.20455350734066998775	0.76450953786981001858	0.26406216509183000340	
8	0	3.31802000000000019142	9.09289000000000058321	9.09285999999999994259	-2.43953406052545007654	1.50882894237928000258	-0.84229222857093999366	
9	1	3.29728000000000021075	7.34931000000000000938	7.45075000000000020606	-0.38132162625697002545	-0.73839878163293004576	1.48495263621678996735	
10	1	3.10970000000000013074	9.13286000000000086629	4.54912000000000027455	0.34238594260533000702	0.01608361958265000155	0.45715245792439002104	
11	1	3.29479999999999995097	7.35787000000000013245	10.77500000000000035527	-0.46739823651965001217	-0.18970008169825000599	-0.42589855739511001120	
12	1	2.99956999999999984752	9.25589000000000083901	1.47971999999999992426	0.43934246153189998596	-0.84586102244030003661	-0.03416855811916000296	
13	0	1.46933000000000002494	10.11989999999999945146	3.15823000000000009280	0.75918485090045995101	-1.10709363062260002231	-0.78603602962954000066	
14	0	1.64884000000000008335	0.90660899999999999821	9.11393999999999948614	-0.31114594641441001288	-0.77909355578646999341	-1.97699128905211995999	
15	1	1.53740999999999994330	10.10859999999999914166	7.46861999999999959243	0.55576016782256998372	-0.86380310505239998875	1.21797331150633003638	
16	1	1.50309000000000003716	0.89152600000000004066	4.64932999999999996277	0.56630578855746005473	0.47642230291062998004	1.12488382578862000649	
17	1	1.58909999999999995701	10.01389999999999957936	10.62749999999999950262	0.60339963412149000277	-0.05732687501799999669	-0.18187550892932000113	
18	1	1.48151999999999994806	0.81512700000000004597	1.48029000000000010573	-0.34826555856863999905	0.25821703905303000637	-0.34250641888791000245	
19	0	2.99542999999999981497	1.78319999999999989626	2.99041999999999985604	2.26899619861963985912	-0.00152502169620000010	1.42331100892058004526	
20	0	3.21063000000000009493	3.64848000000000016740	9.30868000000000073157	-0.16019536474679998972	0.49703275774000998943	-2.82263547705546002931	
21	1	3.23409000000000013131	1.94501999999999997115	7.63370999999999977348	-0.55533470498312997865	-0.27551415431447001669	-0.52617963408111001478	
22	1	3.14822999999999986187	3.60447000000000006281	4.62077000000000026603	-1.03126503670312996697	0.13530652704573001288	-0.90491571903630996232	
23	1	3.08474000000000003752	1.78445000000000009166	10.77210000000000000853	0.46655413908820997371	0.17701179295235999755	0.57397252383353003502	
24	1	2.92460999999999993193	3.58969000000000004746	1.45541999999999993598	2.31707399727959018065	-0.26757512813456002521	-1.79854893356200995491	
25	0	4.62985000000000024301	4.58134999999999958931	3.01079000000000007731	-0.43791337639214999999	-0.18686839884361999831	-0.70502938469308995550	
26	0	4.77127999999999996561	6.30700000000000038369	9.19724000000000074806	0.54937989591516001031	3.07612117228145010017	-1.82545597778148005474	
27	1	4.82038000000000010914	4.58302999999999993719	7.55673999999999956856	-0.52503838476895003939	-0.15341229935846001364	0.44342394173262000834	
28	1	4.65378999999999987125	6.39085999999999998522	4.64081999999999972317	-0.41403154338004999335	-0.51758454816004995092	0.00641026117860999962	
29	1	4.77210000000000000853	4.60815999999999981185	10.72860000000000013642	0.54154461634173001183	-0.57170024451987000447	1.47572959228455991010	
30	1	4.78763999999999967372	6.43238000000000020862	1.41881999999999997009	-0.77382109209891003498	-0.24010631727900999532	0.73656940193296005503	
31	0	6.22839000000000009294	7.28772000000000019782	3.16511999999999993349	1.68273196872329999785	-0.64060365098017002516	-1.34718278285183989951	
32	0	6.19106999999999985107	9.15307999999999921670	9.20233999999999952024	2.13855160309072012126	2.00925401910664991334	0.20255633482651999588	
33	1	6.42208000000000023277	7.49873999999999973909	7.52156999999999964501	-0.52724476466629000004	-1.43218931391964998667	1.28717501121990007817	
34	1	6.11878000000000010772	9.09826999999999941338	4.64163999999999976609	0.44564344932589000647	0.38948742886436998889	0.50213639135426002547	
35	1	6.17701999999999973312	7.40622000000000024755	10.86439999999999983515	1.16632768289621990832	-0.51850708911348997177	-1.09079476740157010894	
36	1	6.41211999999999981981	9.05117000000000082593	1.57150999999999996248	-0.71190457560085995681	0.26349265095676999149	-0.29078949120914998616	
37	0	4.68721000000000032060	10.06429999999999935767	2.94965000000000010516	0.19385655669658000133	0.16210344972801998820	0.56709453867966996832	
38	0	4.68998000000000025977	0.96963500000000002466	9.18219000000000029615	1.46357298566528992723	0.20217605077299000138	-0.41940497635139001309	
39	1	4.88684999999999991616	10.25580000000000069349	7.50752000000000041524	-1.14274277631281995227	-0.89268521218886998092	0.62728745911842997973	
40	1	4.78664999999999984936	0.85850400000000004486	4.53939000000000003610	-1.60331122030571004977	-0.06951732735646000416	0.38650013826288998064	
41	1	4.62788999999999983714	10.22780000000000022453	10.72889999999999943725	0.61308575439523005368	-1.10777564373235004602	0.54586405956637995551	
42	1	4.75255999999999989569	1.02933999999999992170	1.47581000000000006622	-0.87570133244514003490	-1.34754705675766994766	-0.86696364330014996646	
43	0	6.30297000000000018360	1.70497999999999994003	3.03322000000000002728	0.97282473432934002400	1.48480597696181004785	-0.53384003589508000065	
44	0	6.37194000000000038142	3.78299999999999991829	9.15474000000000032173	-0.03864415538109999826	-1.20646855563453003768	-0.34612338487728999681	
45	1	6.31486000000000036181	1.91382000000000007667	7.59159000000000006025	0.55915571848376000030	0.07654256931785000106	0.71976291912023004915	
46	1	6.11104999999999964899	3.62394000000000016115	4.51787000000000027455	1.75101296925908989088	-0.13781385954590000265	0.57580627505190995485	
47	1	6.29115999999999964132	1.94524000000000008015	10.74239999999999994884	0.41746888998877001997	-0.11205541406378000113	-0.15808986723244000672	
48	1	6.22804000000000002046	3.64571999999999984965	1.47751000000000010104	0.90065484572561005372	-0.10948345238270999757	0.33733712313105002067	
49	0	7.92994000000000021089	4.58098000000000027399	3.06097000000000019071	-1.70911877794553990206	-0.28720663625511999584	0.24715406080040999703	
50	0	7.97315000000000040359	6.57301999999999964075	9.23462999999999922807	-1.11033814389539009504	-0.95218589166151001990	0.22476408876557998906	
51	1	8.06320999999999976637	4.72830999999999956884	7.64287999999999989598	-0.39024949992281998679	-0.24600447936777000701	0.42424666394004001413	
52	1	7.85738999999999965240	6.49645999999999990138	4.86927000000000020918	0.06332673948929999630	-1.38850243520874006009	-1.55890188626796000193	
53	1	7.92124999999999968026	4.62628000000000039194	10.72600000000000086686	0.72840643312203001702	0.48873233733199999973	0.14939824377784999276	
54	1	7.88018000000000018446	6.42577999999999960323	1.45626999999999995339	0.55366110817040004033	-0.29826477396702000267	1.91416131579775994354	
55	0	9.60534999999999961062	7.13053000000000025693	3.27285000000000003695	-2.32602638159968000409	2.21448678950986010960	-1.35495402536514997216	
56	0	9.42947000000000024045	9.27660000000000017906	9.23534000000000077080	1.60714080355267996403	-0.57475919540931996732	0.19584040986608999835	
57	1	9.54829999999999934346	7.39128000000000007219	7.70399000000000011568	-0.18473286753720999376	0.60997030530100004864	-0.78690072509093000885	
58	1	9.52276999999999951285	9.08817999999999948102	4.84506000000000014438	0.02567148094594999888	-0.99885258703699997263	-0.67185153198723002177	
59	1	9.61406999999999989370	7.42701999999999973312	10.76679999999999992610	-0.71471848188303999105	0.09523750896344000683	0.35290528045858998718	
60	1	9.54282000000000074635	8.98902999999999963165	1.58864000000000005208	-1.24650020824699003796	-1.05724755031829009688	-0.08753657808954000419	
61	0	7.92250000000000031974	9.85936000000000056787	3.23003000000000017877	-0.20054047261686999692	0.91269672696315995442	-0.73840539662877002769	
62	0	7.96027000000000040103	1.04258999999999990571	9.23085000000000022169	-0.28427267642504000511	-0.39611772022739999422	-0.81984185343465998397	
63	1	7.83028000000000012903	10.15049999999999918998	7.65836999999999967770	0.21252160897811001039	0.17278357449230000165	0.49615733364052999610	
64	1	7.75853000000000037062	0.78756599999999998829	4.69512999999999980361	0.94264995806218998542	0.16736189175155000153	-0.25869543588630000697	
65	1	7.85172000000000025466	10.18880000000000052296	10.76200000000000045475	-0.35929130248223001276	-0.24090051380766999700	-0.02086136967159000002	
66	1	8.01951000000000036039	0.57697600000000004439	1.53777000000000008129	-0.83111926840482996948	1.14944961810678991654	0.49985105525696998940	
67	0	9.44115999999999999659	1.73290999999999995040	3.10666999999999982052	-0.02522306077928000018	-0.85858030651923999965	0.11851344025118000503	
68	0	9.63401999999999958391	3.66101000000000009749	9.21894999999999953388	-1.95954742056245989623	0.95024523479019995520	-0.15375391685872000225	
69	1	9.50371999999999950148	1.92490000000000005542	7.48271999999999959385	0.10324988642483000356	-0.35021144907501999821	1.33758009844762004725	
70	1	9.45237999999999978229	3.59615000000000017977	4.61474000000000028621	-0.34973333951731999658	-0.24991936010345000563	0.36603724492820999270	
71	1	9.65070000000000050022	1.95167000000000001592	10.81439999999999912461	-0.29903392493600000623	-1.18170165450062003565	-0.68530364427915002601	
72	1	9.48474000000000039279	3.56393000000000004235	1.50739000000000000767	-1.09126403972325003444	-0.27158534816604001927	-0.46044235497025998161	
73	0	11.02769999999999939178	4.41472999999999959897	3.01447999999999982634	0.67564566184063001852	0.80796428572763001608	0.22139584851387000830	
74	0	11.10299999999999975842	6.43350000000000044054	9.19050999999999973511	0.67794896851352004497	-0.96009711330418001651	1.51438467005602994675	
75	1	11.07140000000000057412	4.52998000000000011767	7.59553000000000011482	1.01774271325532006394	0.59101203853594996840	0.34207720894773002707	
76	1	11.15779999999999994031	6.06137999999999976808	4.68215999999999965553	0.07957550148960000624	1.37013234738086997488	0.71548188196147000095	
77	1	11.04400000000000048317	4.62502999999999975245	10.91680000000000028137	1.09676713944149994973	-0.21409584513300000674	-1.70592417617967995191	
78	1	11.10350000000000036948	6.41856999999999988660	1.55596000000000000973	-0.12886088020645000696	-0.88933353137915005515	0.22349486010519001300	
79	0	-0.02287470000000000128	7.27268999999999987693	3.18611000000000021970	-0.09039869812044000474	-0.21161612235635998691	-0.08246151446820000619	
80	0	-0.06742280000000000495	9.09604999999999996874	9.17225999999999963563	1.71142117136336002758	1.58266699880912997678	-0.14268036206542999977	
81	1	-0.02246839999999999948	7.32925000000000004263	7.69824999999999981526	0.82812756759408001628	-0.85851189713860998065	-1.07254437845497996307	
82	1	-0.03082280000000000089	9.13158999999999920760	4.73601000000000027512	-0.43214885553630999482	-0.24928170846280001127	-0.01082582863963999983	
83	1	0.12788499999999999868	7.37293000000000020577	10.83120000000000082707	-0.67500597552828001113	-0.70034453351047998293	-0.78024712630810000302	
84	1	-0.00249660999999999980	9.13871999999999928832	1.62349999999999994316	-0.54787659710507996547	-0.60367855830956995700	-0.84648957540817004741	
85	0	10.98590000000000088676	9.88804000000000016257	3.06577000000000010616	1.64725882630961995012	1.75522052452183996429	2.42169871178663020928	
86	0	11.17719999999999913598	0.98020899999999999697	9.07433999999999940655	-2.03248538650829013719	-0.83258755664206995917	1.16299695352878007526	
87	1	11.05059999999999931219	10.11780000000000079297	7.69291999999999998039	-0.28482443911498001032	-0.49169299677147998429	-1.17492564086949990987	
88	1	10.93810000000000037801	0.66488899999999995227	4.72158999999999995367	0.65455128712493004794	1.23370807267973003896	-0.94577759207173994760	
89	1	11.21790000000000020464	10.11950000000000038369	10.78229999999999932925	-1.24935547053946005569	0.40450653343421999475	-0.39546033630985000240	
90	1	11.03870000000000040075	0.73312200000000005140	1.51758999999999999453	0.01208486073178999948	0.60159737193744000638	0.70401891569855001851	
91	0	-0.00608549999999999976	1.75466999999999995197	3.11725999999999991985	-2.28953710826589995619	-1.22393721487288997807	-0.91010231244315997756	
92	0	0.07664730000000000154	3.54813000000000000611	9.11420999999999992269	-0.98158813681331003043	2.96021447859006014980	0.93600659916961004292	
93	1	-0.01028809999999999968	1.84400999999999992696	7.50800000000000000711	1.06571934407588009286	-0.29946925903722998452	-0.69226694564364998907	
94	1	-0.11641100000000000059	3.55045000000000010587	4.59023999999999965382	1.13124912920198994470	0.45409097942650999968	0.14630026012903998844	
95	1	0.10058999999999999886	1.71243999999999996220	10.53379999999999938609	-0.39229883885302002655	0.85263927470642997264	2.79176972661039979329	
96	1	-0.12873100000000001208	3.50896000000000007901	1.44457999999999997520	0.34362737968872997252	-0.05774033833897999901	-0.49725441386676999533	
Energy
-80519.32130140179651789367
PlusStress:	xx	yy	zz	yz	xz	xy
1.90878116547629961275	-1.79204012319862937552	4.26399299719671631692	9.84960736297462524647	5.80795231897221064798	0.08234141080917051214
END_CFG

BEGIN_CFG
Size
96
Supercell
12.716380027344181	0.0	0.0
0.0	10.946762843420007	0.0
0.0	0.0	12.216992760793179
AtomData:	id	type	cartes_x	cartes_y	cartes_z	fx	fy	fz
1	0	1.55054000000000002935	4.53192000000000039250	3.09218999999999999417	-0.16583827843442999761	-0.50154775634353998548	0.21110405083379998881	
2	0	1.60680000000000000604	6.43201000000000000512	9.08428999999999930992	-0.42494721957940001511	-1.41147999548019997818	1.51429351658761990329	
3	1	1.50926000000000004597	4.57162000000000023903	7.53763999999999967372	0.12023103041857000073	-0.12692267635654999602	0.62961573171634999113	
4	1	1.67605000000000003979	6.29605999999999976779	4.71206000000000013728	-1.14186939364399009378	0.44766319183863001463	-0.31238343282706998449	
5	1	1.45890000000000008562	4.62012999999999962597	10.74900000000000055422	1.25946979628121003003	0.28713992535514998306	-0.33671886138987999759	
6	1	1.49931999999999998607	6.23068000000000044025	1.48222000000000009301	0.54025049263411994982	1.01246106087756992942	-0.02003679063012000008	
7	0	3.06694000000000022155	7.34302000000000010260	3.10694999999999987850	1.22639055793002005323	-1.21713616526174006616	-1.59930377960299008322	
8	0	3.13879999999999981242	9.15074000000000076227	9.08145000000000024443	0.05706834805151000251	0.30988426082846998177	1.26557993251019995640	
9	1	3.32284999999999985931	7.28816000000000041581	7.64381999999999983686	-1.33481917930749993673	0.47024049270260998012	-1.53584215463008999514	
10	1	3.12105999999999994543	9.04631999999999969475	4.71384000000000025210	0.09427303843407000561	1.25231323854512011096	-0.35868069653830997323	
11	1	3.11087999999999986755	7.31803999999999987836	10.69040000000000034674	-0.06486758290168999352	0.59437089335111004118	0.63090901528695997325	
12	1	3.17858000000000018304	9.16846999999999923148	1.45087999999999994749	-0.53701275699640005357	-0.17000584274583999123	0.73977530381581002583	
13	0	1.57350999999999996426	10.07290000000000063096	3.09135999999999988574	0.21319808662022998735	-1.17998750654588002718	0.69928093799975998834	
14	0	1.56089000000000011070	0.98593600000000003458	9.04584000000000010289	-0.11254478909336999848	-0.39927840014181997796	1.28907492565859005396	
15	1	1.56017999999999990024	10.01019999999999932072	7.43792999999999970839	0.35022275338335001615	0.60305198384407998624	0.49848164153315999148	
16	1	1.39182000000000005713	0.87178400000000000336	4.84454000000000029047	1.64450065126423994322	0.51071832149178997273	-1.62281115664417008304	
17	1	1.64962000000000008626	10.18130000000000023874	10.71460000000000079012	-0.67843955186051996264	-0.76495781612337998556	-1.07841149460732999010	
18	1	1.55818999999999996398	0.82218899999999994765	1.55634999999999990017	0.06769651675705000426	1.47898735048880003440	-0.83047703807901995798	
19	0	3.12661999999999995481	1.83671999999999990827	3.06032999999999999474	0.37362678623551998092	-0.17210753249033999834	1.88041748350452997407	
20	0	3.16403999999999996362	3.71202999999999994074	9.11125000000000007105	-0.63553012357175997504	0.90823137331370995540	0.90692917694109997928	
21	1	3.22825000000000006395	1.91338999999999992419	7.61498000000000008214	-0.81956628373778994678	-0.01358707351028000040	-1.58743342350064997603	
22	1	3.20814000000000021373	3.78474999999999983658	4.75288999999999983714	-0.51530560840048000859	-1.07890111075209005342	-0.90160728881251994693	
23	1	3.07118000000000002103	1.96592999999999995531	10.70219999999999949125	0.30881435395987999470	-0.73983306229197998150	-0.17028518094770001001	
24	1	3.21993000000000018090	3.65874999999999994671	1.57932000000000005713	-0.60397991170050002729	0.03771866254377000127	-0.57827854432307002064	
25	0	4.74587999999999965439	4.64421000000000017138	3.12829999999999985860	-0.44554285765326001600	-1.61675235876481004915	-1.53934594757556997280	
26	0	4.74153000000000002245	6.45077999999999995850	9.23507999999999995566	1.14707354544704998034	-0.40852244239402002446	0.61719276138167000756	
27	1	4.71933000000000024698	4.77522999999999964160	7.58309000000000033026	0.80447091339868004312	-1.28104801948192004168	0.22669673575037999069	
28	1	4.83218000000000014182	6.46515000000000039648	4.52388999999999974477	-2.28913884852677007586	-0.30471205209386997836	2.71302279211794017399	
29	1	4.73916999999999966064	4.55323999999999973198	10.79129999999999967031	0.04880458491538999799	0.43333226581465000837	-0.65085408762341001587	
30	1	4.66237999999999974676	6.38511000000000006338	1.50842000000000009408	-0.79773667750022003720	0.08152904388722000129	-0.99708235950337997799	
31	0	6.21868999999999960693	7.21637000000000039535	2.98388000000000008782	3.03244934136084021148	2.18909421141533000466	-0.18206523266356999802	
32	0	6.34025000000000016342	9.17484999999999928377	9.23661000000000065313	-0.01905593850991000107	0.61154817740449995966	-0.52649206867039000102	
33	1	6.33828999999999975756	7.43071999999999999176	7.65988000000000024414	0.32968836326910999635	-1.08240132816652989689	0.25020654013179999264	
34	1	6.20415999999999989711	9.00764999999999993463	4.68733000000000021856	0.49757744451383001394	0.74848584935269002472	-0.79932601201421005221	
35	1	6.30304999999999981952	7.37450999999999989853	10.81600000000000072475	0.49822322739219998544	-0.48612955741887997618	-0.19726718085843000794	
36	1	6.33002000000000020208	9.14874999999999971578	1.58637000000000005784	-0.61087028177859004074	-0.12531475164430000424	-0.89162060236912998867	
37	0	4.68818999999999963535	10.08639999999999936620	3.09481999999999990436	0.26691179790621000212	-1.23379721637890993335	0.42677239147432000088	
38	0	4.67487000000000030298	0.96741500000000002490	9.13812000000000068667	0.92489896510304003829	-0.23022660168302999661	1.99488858651622003038	
39	1	4.75011000000000027654	10.06850000000000022737	7.62150000000000016342	0.30623716320631000354	0.08160770743874000421	-0.58542622713898995190	
40	1	4.79879999999999995453	0.97642700000000004490	4.61716000000000015291	-0.60447696940731998616	-0.16501437022470999416	0.08025944570031000314	
41	1	4.69233999999999973340	10.04930000000000056559	10.71230000000000082139	-0.16910980511049000796	0.33780283040422998120	0.16594785650600998861	
42	1	4.69815999999999966974	0.87363500000000005041	1.46758999999999995012	0.30146113048957001723	0.72096558828101997562	0.22690581579662999490	
43	0	6.36838000000000015177	1.80208999999999996966	3.02724999999999999645	-0.13628506809961998814	0.18137810147020000384	-0.20744468631360998834	
44	0	6.40510999999999963705	3.74732999999999982776	9.18177999999999983061	-1.61257152163081007856	-0.47962537223417001098	-0.20563849197541000935	
45	1	6.25959000000000020947	1.86397999999999997023	7.66990999999999978343	0.99629159563506997088	0.30395816507191997236	-0.42054897506353999814	
46	1	6.23526000000000024670	3.64855000000000018190	4.62037000000000031008	1.21062100649106008099	-0.37442685170271999828	0.36340323304684002403	
47	1	6.30499999999999971578	1.91504000000000007553	10.75210000000000043485	-0.26724575420634999467	-0.17125745185694998818	-0.01003289258300999950	
48	1	6.34450000000000002842	3.68784000000000000696	1.46012999999999992795	-0.00403952701670000011	-0.32444201696412000580	0.89126970469578004064	
49	0	7.92086000000000023391	4.54248000000000029530	3.12388999999999983359	-0.22385151041215001211	-0.80190024293952999468	-0.89358605425810999634	
50	0	7.98383999999999982577	6.34083000000000041041	9.22503999999999990678	-1.94115337378177010841	0.93903094051919999696	-1.56290986421783006932	
51	1	7.99882999999999988461	4.46326000000000000512	7.54684000000000043684	-0.33200995697592999845	0.83920578756827002298	0.53024388549263001824	
52	1	7.74408999999999991815	6.39573999999999998067	4.69662999999999986045	0.77334771103579003082	-0.44965751112289997771	-0.62032393326896995145	
53	1	8.00092000000000069804	4.58528000000000002245	10.75339999999999918145	-0.58369951614782999982	-0.54095833736331000452	0.72379228612643997653	
54	1	7.82085000000000007958	6.27033000000000040330	1.41318999999999994621	0.71374954849989002970	0.47641077098758999320	1.02351667966963000289	
55	0	9.40166999999999930537	7.28551999999999999602	3.12989000000000006096	0.22086802382172998627	-1.07389804226893992301	-1.22136487046215003183	
56	0	9.51892999999999922522	9.05280999999999913541	9.10819000000000045247	-0.71939241652556995543	0.90975845263480004110	1.05651053459815003066	
57	1	9.42125000000000056843	7.28003999999999962256	7.56015000000000014779	0.57636833706472001548	-0.36425012064815998070	-0.01282916455099999964	
58	1	9.40776999999999929969	9.00632000000000054740	4.67996999999999996334	0.52017250997514996591	0.82272413340835004458	0.62012698385728004524	
59	1	9.40532999999999930196	7.28671000000000024244	10.78580000000000005400	0.82929711059075994495	0.54065910434722996847	0.30378760274269001052	
60	1	9.50880000000000080718	9.09328999999999965098	1.53309999999999990727	-0.14706816130200001114	-0.15778105743584999732	0.39581763710227002573	
61	0	7.89834000000000013841	9.99341000000000079240	3.10876999999999981128	0.30257860098361000212	0.16553806115010000211	0.65504914872764996581	
62	0	7.93219000000000029615	0.98607800000000001006	9.26459000000000010289	0.10417868906997000689	-0.47776446304267999876	-0.96470834381284997772	
63	1	7.90151000000000003354	10.14419999999999966178	7.62349000000000032173	0.09974693320609999414	-0.34568136985702002661	0.34919267320693997414	
64	1	7.95246999999999992781	0.90157299999999995777	4.70408999999999988262	-0.35980532862057001964	-0.18361710528357000349	-0.70959267230359002188	
65	1	7.93398000000000003240	10.07690000000000019043	10.76820000000000021600	0.43437772839380001111	-0.28285882021292002575	-0.07819814277012999970	
66	1	8.04510999999999931731	0.78739099999999995205	1.45777000000000001023	-0.69408019761785999524	0.62266194031365995620	0.86693013529715001741	
67	0	9.57133999999999929287	1.76713000000000008960	3.12038999999999999702	-0.98873460682239999731	-1.02854039842224009860	-0.08562931119812999814	
68	0	9.48672000000000004150	3.58275999999999994472	9.20581999999999922579	0.58640019650074004520	0.26321362265883002651	0.26876421795305999174	
69	1	9.55231000000000030070	1.84210999999999991417	7.57716000000000011738	-0.48928304456160998104	-0.65985645039852003357	0.75171576215192004167	
70	1	9.49337000000000053035	3.52540999999999993264	4.70844000000000040274	0.17220623868259998801	0.94529798214217997110	-0.52074360573436995203	
71	1	9.52969000000000043826	1.78709999999999991083	10.90929999999999999716	0.19493158763765000563	-0.03099798356126999901	-1.19673750725765004610	
72	1	9.50680000000000013927	3.41532999999999997698	1.44225000000000003197	-0.19772895589622999091	1.56284133677460990164	0.84348948944728996402	
73	0	11.05160000000000053433	4.48691999999999957538	3.03596999999999983544	-0.20716188218563000301	-0.14643681747397999104	0.28143455980770998304	
74	0	10.98099999999999987210	6.39386000000000009891	9.22480000000000011084	1.58007077169981990927	0.30167639864961998120	-1.16255908145797004494	
75	1	11.05310000000000059117	4.50788999999999973056	7.68585999999999991417	0.05802288661009000204	0.57936584797132995028	-0.34160131000114002386	
76	1	11.07109999999999949694	6.30029000000000038995	4.59334000000000042263	0.13580762314631000809	0.46216591189033001674	0.26587909093474998423	
77	1	10.99649999999999927525	4.62868000000000012761	10.76009999999999955378	0.51159414114408996443	-0.68240369364308994804	0.59691363428174004646	
78	1	11.08019999999999960494	6.44305000000000038796	1.56818999999999997286	-0.33024852187036002338	-0.63965501141683001052	-0.27496904169079000591	
79	0	0.05081019999999999981	7.24643000000000014893	3.06451999999999991076	-0.86808644935556000810	0.10888977595642999885	0.86324255588567000430	
80	0	0.05120969999999999689	9.10607000000000077478	9.04767000000000010118	0.34757818163942000300	-0.46917400422519001113	0.97237798302423994468	
81	1	0.02670640000000000167	7.17002000000000005997	7.59145999999999965269	-1.30720240507546003883	0.90365772595122995092	-0.61182472377274998987	
82	1	0.07050689999999999735	9.10791000000000039449	4.61603000000000029956	-0.54006374837749004936	-0.75446081401245002063	0.78679321888068998181	
83	1	-0.02302140000000000089	7.31522000000000005571	10.74269999999999924967	0.19839088451965999904	-0.01676253442113000147	-0.81750522764055000291	
84	1	-0.01977740000000000054	9.08334999999999936904	1.49974999999999991651	0.14916287555242999097	0.10880305521864999663	0.45329631880409998468	
85	0	11.11580000000000012506	9.94711000000000034049	3.16976000000000013301	-0.44851939604960000541	-0.47210952709272002714	-0.65861081714775004947	
86	0	11.08510000000000061959	0.89039299999999999002	9.19115000000000037517	0.38024498775259002459	0.11557531331293000032	0.76394396481653004116	
87	1	11.11570000000000035811	10.02309999999999945430	7.62082999999999977092	-0.16517967088519000529	-0.04331391401015000087	-0.89472575987237001893	
88	1	11.17360000000000042064	0.82926299999999997237	4.68656999999999968054	-0.16315426196258001057	0.48627628967842001506	0.02245163550258999843	
89	1	11.23259999999999969589	9.81765000000000043201	10.62020000000000052864	-0.93678125769608000528	1.44088709994444008622	0.80532392342537995056	
90	1	11.12739999999999973568	0.75950899999999998968	1.60834000000000010289	0.43672300402023001009	0.68760401005215998627	-0.42772782697000000240	
91	0	0.03121430000000000038	1.86766999999999994131	3.09521999999999986031	-1.24068485518832005710	-2.28056901181864990491	0.54222417368970998730	
92	0	-0.06455180000000000640	3.68079000000000000625	9.25494999999999912177	-0.21854805254164000328	-0.33343586725849999608	-1.20918352379546001352	
93	1	-0.10845499999999999585	1.86238999999999998991	7.57943999999999995509	0.12883975309786999119	0.22951354730546999483	0.37503736136040000115	
94	1	-0.08505820000000000047	3.62490999999999985448	4.65904999999999969162	0.22918471649169000481	0.55605581914221002826	-0.15767456209724001193	
95	1	0.02552319999999999936	1.85657000000000005357	10.80620000000000047180	-0.39514902147032998636	-0.53015877071771000395	-0.95369147633893003313	
96	1	-0.17570500000000000007	3.51182000000000016371	1.43832000000000004292	1.18408598775518991708	1.15536157440052988932	0.18222839121291001252	
Energy
-80522.12134028610307723284
PlusStress:	xx	yy	zz	yz	xz	xy
-10.54929033779099434298	4.17466173177000410277	-3.73714308324833366370	-6.95589748762657755776	3.28384185538710005048	0.70004857827459276987
END_CFG

BEGIN_CFG
Size
96
Supercell
12.70750539866243	0.0	0.0
0.0	10.963401250970373	0.0
0.0	0.0	12.2016296516871
AtomData:	id	type	cartes_x	cartes_y	cartes_z	fx	fy	fz
1	0	1.44169999999999998153	4.54335999999999984311	3.05901999999999985036	2.27901053425292987598	0.20352566347178999151	-0.40880830913543997340	
2	0	1.55976000000000003531	6.34250000000000024869	9.21527000000000029445	0.00503704574730999988	-0.23398960768731000281	0.35058599336871998364	
3	1	1.58037000000000005251	4.45807000000000019924	7.62418999999999957851	-0.09943132477702999739	0.72193391710926002602	0.36621133847586001542	
4	1	1.69876999999999989122	6.43569999999999975415	4.57566999999999968196	-0.71581308891133998973	-0.57128483427216003587	0.42250822678460997484	
5	1	1.53516999999999992355	4.43163000000000018019	10.79299999999999926104	0.22610286062830001197	0.78165702752212995463	-0.42784684471653999793	
6	1	1.53872999999999993115	6.33819999999999961204	1.47429999999999994387	-0.18850246830111999641	0.51822539436263004298	0.29662170615970001597	
7	0	3.25348000000000014964	7.28695999999999965979	2.97122000000000019426	-1.77544910441185010974	0.53930211156398000227	0.64013385701657998794	