BEGIN_CFG
Size
96
Supercell
12.63888306323868	0.0	0.0
0.0	10.945593808169482	0.0
0.0	0.0	12.258837544906266
AtomData:	id	type	cartes_x	cartes_y	cartes_z	fx	fy	fz
1	0	1.57986038290483477020	4.56066408671904266470	3.06470938622656641215	0.00004133365762000000	0.00001815209744000000	0.00000746371044000000	
2	0	1.57986038290483499225	6.38492972145044124233	9.19412815867969968053	0.00002371126800000000	-0.00003478358516000000	-0.00000961061764000000	
3	1	1.57986038290483477020	4.56066408671904266470	7.61670052988453871734	0.00002147138763000000	0.00000778050539000000	0.03324322507820000328	
4	1	1.57986038290483499225	6.38492972145044124233	4.64213701502172781943	-0.00000220891271000000	-0.00000701095688000000	-0.03320850607631999768	
5	1	1.57986038290483477020	4.56066408671904266470	10.77155578747485975555	0.00002122399499000000	0.00000767566235000000	-0.03324284216403999848	
6	1	1.57986038290483499225	6.38492972145044124233	1.48728175743140478282	-0.00000208033752000000	-0.00000616584373000000	0.03320938172732999794	
7	0	3.15972076580966998449	7.29706253876141275327	3.06470938622656641215	0.00001995830557000000	0.00001367640632000000	0.00000790331718000000	
8	0	3.15972076580966998449	9.12132817349281133090	9.19412815867969968053	0.00003990845664000000	-0.00000791527915000000	-0.00000806072941000000	
9	1	3.15972076580966998449	7.29706253876141275327	7.61670052988453871734	0.00001075787471000000	-0.00000830827112000000	0.03325148564192000056	
10	1	3.15972076580966998449	9.12132817349281133090	4.64213701502172781943	-0.00001602291482000000	0.00001401378228000000	-0.03324472135926000160	
11	1	3.15972076580966998449	7.29706253876141275327	10.77155578747485975555	0.00001082412175000000	-0.00000827130665000000	-0.03325235083906000200	
12	1	3.15972076580966998449	9.12132817349281133090	1.48728175743140478282	-0.00001517367302000000	0.00001481151584000000	0.03324527799284000135	
13	0	1.57986038290483477020	10.03346099080378373003	3.06470938622656641215	0.00004361545392000000	0.00000322157783000000	0.00000924535214000000	
14	0	1.57986038290483499225	0.91213281736569939984	9.19412815867969968053	0.00002365001252000000	0.00001227702335000000	-0.00000955520287000000	
15	1	1.57986038290483477020	10.03346099080378373003	7.61670052988453871734	0.00002802627773000000	0.00001348746920000000	0.03321413619389999849	
16	1	1.57986038290483499225	0.91213281736569939984	4.64213701502172781943	0.00000999138575000000	-0.00002629646041000000	-0.03322182912087000284	
17	1	1.57986038290483477020	10.03346099080378373003	10.77155578747485975555	0.00002821145927000000	0.00001438617636000000	-0.03321532582700000014	
18	1	1.57986038290483499225	0.91213281736569939984	1.48728175743140478282	0.00001054820866000000	-0.00002585473177000000	0.03322281055299999841	
19	0	3.15972076580966998449	1.82426563467667124385	3.06470938622656641215	0.00003180262589000000	-0.00000175526728000000	0.00001097873469000000	
20	0	3.15972076580966998449	3.64853126940806982148	9.19412815867969968053	0.00002041459253000000	-0.00001132000278000000	-0.00000878737646000000	
21	1	3.15972076580966998449	1.82426563467667124385	7.61670052988453871734	0.00001566597309000000	0.00000188026967000000	0.03326148669547999981	
22	1	3.15972076580966998449	3.64853126940806982148	4.64213701502172781943	-0.00000358060695000000	0.00000185757281000000	-0.03322080560104000158	
23	1	3.15972076580966998449	1.82426563467667124385	10.77155578747485975555	0.00001642574858000000	0.00000191642728000000	-0.03326235317736000313	
24	1	3.15972076580966998449	3.64853126940806982148	1.48728175743140478282	-0.00000330212644000000	0.00000133231292000000	0.03322147591517000259	
25	0	4.73958114871450497674	4.56066408671904266470	3.06470938622656641215	0.00000444577317000000	0.00001209898089000000	0.00001047265605000000	
26	0	4.73958114871450497674	6.38492972145044124233	9.19412815867969968053	-0.00001461220247000000	-0.00000940108200000000	-0.00000971527892000000	
27	1	4.73958114871450497674	4.56066408671904266470	7.61670052988453871734	-0.00000116030333000000	0.00000613384873000000	0.03325562081215999860	
28	1	4.73958114871450497674	6.38492972145044124233	4.64213701502172781943	-0.00001701366597000000	-0.00001184175617000000	-0.03321510616557000334	
29	1	4.73958114871450497674	4.56066408671904266470	10.77155578747485975555	-0.00000067734806000000	0.00000575141898000000	-0.03325595916357999837	
30	1	4.73958114871450497674	6.38492972145044124233	1.48728175743140478282	-0.00001668822890000000	-0.00001246679720000000	0.03321459628506000239	
31	0	6.31944153161933908081	7.29706253876141275327	3.06470938622656641215	0.00000400281079000000	0.00001046440457000000	0.00001065589548000000	
32	0	6.31944153161933908081	9.12132817349281133090	9.19412815867969968053	-0.00003595506637000000	-0.00000799923623000000	-0.00001138843971000000	
33	1	6.31944153161933908081	7.29706253876141275327	7.61670052988453871734	-0.00001277404367000000	-0.00000192765081000000	0.03322763946269999963	
34	1	6.31944153161933908081	9.12132817349281133090	4.64213701502172781943	-0.00002406360906000000	0.00000971687978000000	-0.03321365103769000071	
35	1	6.31944153161933908081	7.29706253876141275327	10.77155578747485975555	-0.00001300462891000000	-0.00000125073772000000	-0.03322995718111999841	
36	1	6.31944153161933908081	9.12132817349281133090	1.48728175743140478282	-0.00002401619307000000	0.00001090618826000000	0.03321356017213000084	
37	0	4.73958114871450497674	10.03346099080378373003	3.06470938622656641215	-0.00000691156156000000	0.00001894253030000000	0.00001145635243000000	
38	0	4.73958114871450497674	0.91213281736569939984	9.19412815867969968053	-0.00002343382840000000	-0.00000636149008000000	-0.00000920107561000000	
39	1	4.73958114871450497674	10.03346099080378373003	7.61670052988453871734	0.00000211454124000000	0.00002184937620000000	0.03324396695349000203	
40	1	4.73958114871450497674	0.91213281736569939984	4.64213701502172781943	-0.00001931868551000000	-0.00001755777929000000	-0.03321715395065000243	
41	1	4.73958114871450497674	10.03346099080378373003	10.77155578747485975555	0.00000145323940000000	0.00002222174573000000	-0.03324495011588000232	
42	1	4.73958114871450497674	0.91213281736569939984	1.48728175743140478282	-0.00001823767021000000	-0.00001799777082000000	0.03321858817437999684	
43	0	6.31944153161933908081	1.82426563467667124385	3.06470938622656641215	0.00000750940906000000	0.00001020698886000000	0.00001073158362000000	
44	0	6.31944153161933908081	3.64853126940806982148	9.19412815867969968053	-0.00003484064981000000	-0.00000425399403000000	-0.00000956326742000000	
45	1	6.31944153161933908081	1.82426563467667124385	7.61670052988453871734	-0.00002438535360000000	0.00000537093524000000	0.03322831832593999696	
46	1	6.31944153161933908081	3.64853126940806982148	4.64213701502172781943	-0.00001841178505000000	0.00000878023074000000	-0.03320773260965999979	
47	1	6.31944153161933908081	1.82426563467667124385	10.77155578747485975555	-0.00002486598523000000	0.00000577270053000000	-0.03322992108476999912	
48	1	6.31944153161933908081	3.64853126940806982148	1.48728175743140478282	-0.00001845249547000000	0.00000785649789000000	0.03320893672687000309	
49	0	7.89930191452417496123	4.56066408671904266470	3.06470938622656641215	0.00001204494320000000	0.00000403610563000000	0.00001095159803000000	
50	0	7.89930191452417496123	6.38492972145044124233	9.19412815867969968053	-0.00001360460843000000	-0.00001835926503000000	-0.00001048461309000000	
51	1	7.89930191452417496123	4.56066408671904266470	7.61670052988453871734	0.00002018787421000000	-0.00001459801966000000	0.03323346546996999717	
52	1	7.89930191452417496123	6.38492972145044124233	4.64213701502172781943	0.00000355722356000000	-0.00000207554993000000	-0.03320362730560000308	
53	1	7.89930191452417496123	4.56066408671904266470	10.77155578747485975555	0.00001955432686000000	-0.00001467882908000000	-0.03323487363810000150	
54	1	7.89930191452417496123	6.38492972145044124233	1.48728175743140478282	0.00000432359651000000	-0.00000160296557000000	0.03320409720770999690	
55	0	9.47916229742900995348	7.29706253876141275327	3.06470938622656641215	-0.00000255270360000000	0.00001145403843000000	0.00000903747223000000	
56	0	9.47916229742900995348	9.12132817349281133090	9.19412815867969968053	-0.00002782876972000000	-0.00001139018660000000	-0.00000909146330000000	
57	1	9.47916229742900995348	7.29706253876141275327	7.61670052988453871734	0.00001904993914000000	0.00000837855612000000	0.03322189544093000213	
58	1	9.47916229742900995348	9.12132817349281133090	4.64213701502172781943	-0.00000696216409000000	-0.00001375328612000000	-0.03320897531765999722	
59	1	9.47916229742900995348	7.29706253876141275327	10.77155578747485975555	0.00001839039845000000	0.00000886147616000000	-0.03322170682575999873	
60	1	9.47916229742900995348	9.12132817349281133090	1.48728175743140478282	-0.00000753001968000000	-0.00001347309107000000	0.03320916945780000296	
61	0	7.89930191452417496123	10.03346099080378373003	3.06470938622656641215	0.00001561440035000000	0.00002301408711000000	0.00001141097755000000	
62	0	7.89930191452417496123	0.91213281736569939984	9.19412815867969968053	-0.00001820940897000000	-0.00000410570179000000	-0.00000905395795000000	
63	1	7.89930191452417496123	10.03346099080378373003	7.61670052988453871734	0.00001440512306000000	-0.00001426282070000000	0.03320507535844999941	
64	1	7.89930191452417496123	0.91213281736569939984	4.64213701502172781943	0.00001309320651000000	0.00000369976513000000	-0.03321447075852999864	
65	1	7.89930191452417496123	10.03346099080378373003	10.77155578747485975555	0.00001338099389000000	-0.00001675853698000000	-0.03320536955910999982	
66	1	7.89930191452417496123	0.91213281736569939984	1.48728175743140478282	0.00001356713629000000	0.00000427665358000000	0.03321490154707999742	
67	0	9.47916229742900995348	1.82426563467667124385	3.06470938622656641215	-0.00002194093932000000	0.00001005891451000000	0.00001024620527000000	
68	0	9.47916229742900995348	3.64853126940806982148	9.19412815867969968053	-0.00000442241020000000	-0.00000742809236000000	-0.00001524614858000000	
69	1	9.47916229742900995348	1.82426563467667124385	7.61670052988453871734	0.00002960197791000000	0.00002127471230000000	0.03322899968178000263	
70	1	9.47916229742900995348	3.64853126940806982148	4.64213701502172781943	-0.00000994634861000000	-0.00002076125669000000	-0.03322263249085000147	
71	1	9.47916229742900995348	1.82426563467667124385	10.77155578747485975555	0.00002733893020000000	0.00002022746862000000	-0.03322707846001000248	
72	1	9.47916229742900995348	3.64853126940806982148	1.48728175743140478282	-0.00001026318626000000	-0.00002157194484000000	0.03322423160440000217	
73	0	11.05902268033384672208	4.56066408671904266470	3.06470938622656641215	-0.00002283868133000000	0.00001924444869000000	0.00001153068235000000	
74	0	11.05902268033384672208	6.38492972145044124233	9.19412815867969968053	-0.00002725630961000000	-0.00004630410721000000	-0.00001312046340000000	
75	1	11.05902268033384672208	4.56066408671904266470	7.61670052988453871734	-0.00000624797492000000	0.00000005489896000000	0.03323797745236999751	
76	1	11.05902268033384672208	6.38492972145044124233	4.64213701502172781943	-0.00001303797389000000	0.00000098123269000000	-0.03320934670929000243	
77	1	11.05902268033384672208	4.56066408671904266470	10.77155578747485975555	-0.00000630370691000000	0.00000050245039000000	-0.03323805763177999778	
78	1	11.05902268033384672208	6.38492972145044124233	1.48728175743140478282	-0.00001405653772000000	0.00000144162812000000	0.03320968840179999715	
79	0	0.00000000000000082799	7.29706253876141275327	3.06470938622656641215	0.00001062114024000000	0.00001896824690000000	0.00000941484811000000	
80	0	0.00000000000000082799	9.12132817349281133090	9.19412815867969968053	-0.00001189939936000000	-0.00000336044113000000	-0.00000851330705000000	
81	1	0.00000000000000082799	7.29706253876141275327	7.61670052988453871734	0.00001393722512000000	-0.00002276425478000000	0.03321420942588999836	
82	1	0.00000000000000082799	9.12132817349281133090	4.64213701502172781943	0.00001270964016000000	0.00001014080923000000	-0.03322089782116000034	
83	1	0.00000000000000082799	7.29706253876141275327	10.77155578747485975555	0.00001322135199000000	-0.00002369585087000000	-0.03321512888453000134	
84	1	0.00000000000000082799	9.12132817349281133090	1.48728175743140478282	0.00001215831580000000	0.00001100440949000000	0.03322147943133999665	
85	0	11.05902268033384672208	10.03346099080378373003	3.06470938622656641215	-0.00001164122232000000	0.00000994315637000000	0.00000978672727000000	
86	0	11.05902268033384672208	0.91213281736569939984	9.19412815867969968053	-0.00001500298014000000	0.00001322192511000000	-0.00001184486042000000	
87	1	11.05902268033384672208	10.03346099080378373003	7.61670052988453871734	-0.00001068588149000000	0.00001609102768000000	0.03321490982440000045	
88	1	11.05902268033384672208	0.91213281736569939984	4.64213701502172781943	-0.00003375223302000000	-0.00000209560488000000	-0.03320580243077000254	
89	1	11.05902268033384672208	10.03346099080378373003	10.77155578747485975555	-0.00001081533456000000	0.00001527117523000000	-0.03321463913734999662	
90	1	11.05902268033384672208	0.91213281736569939984	1.48728175743140478282	-0.00003412476147000000	-0.00000257094531000000	0.03320688195089999822	
91	0	0.00000000000000082799	1.82426563467667124385	3.06470938622656641215	0.00002208991995000000	-0.00001337586491000000	0.00000996399427000000	
92	0	0.00000000000000082799	3.64853126940806982148	9.19412815867969968053	-0.00002432356542000000	-0.00001713446780000000	-0.00000912802651000000	
93	1	0.00000000000000082799	1.82426563467667124385	7.61670052988453871734	0.00000522567864000000	-0.00000693986970000000	0.03322820397080000071	
94	1	0.00000000000000082799	3.64853126940806982148	4.64213701502172781943	-0.00000102905338000000	0.00001657399263000000	-0.03319133329871999660	
95	1	0.00000000000000082799	1.82426563467667124385	10.77155578747485975555	0.00000739994109000000	-0.00000614001254000000	-0.03322892918439000060	
96	1	0.00000000000000082799	3.64853126940806982148	1.48728175743140478282	-0.00000107181111000000	0.00001667826001000000	0.03319145671253000140	
Energy
-80527.30969438569445628673
PlusStress:	xx	yy	zz	yz	xz	xy
0.26263077979913618254	0.26680147486612720842	4.11208907201417606103	0.00002123251175251932	-0.00001592037158250820	0.00127696763284082483
END_CFG

