BEGIN_CFG
Size
96
Supercell
12.6693909527259	0.0	0.0
0.0	10.853809732020531	0.0
0.0	0.0	12.365478542631099
AtomData:	id	type	cartes_x	cartes_y	cartes_z	fx	fy	fz
1	0	1.52814000000000005386	4.59851000000000009749	3.02768000000000014893	0.85995518103879997618	0.35741033224536999935	-0.03858938268405000260	
2	0	1.59674000000000004817	6.35524999999999984368	9.08794999999999930651	-0.09346814040669999823	-0.21207066274138000606	0.95059210890502998659	
3	1	1.59234999999999993214	4.48437999999999981071	7.60510000000000019327	-0.07624631153156999352	0.19714687020963000963	-0.44916447853594998474	
4	1	1.60098000000000006970	6.46729000000000020520	4.55337999999999976097	-0.57568650704441004518	-0.16452073311094000951	0.22727579836885999920	
5	1	1.57394999999999996021	4.59323999999999976751	10.76210000000000022169	0.12029048859244000080	-0.12328077374104000341	-0.27866769313284001086	
6	1	1.58563000000000009493	6.41155000000000008242	1.43782000000000009798	-0.29850511943348001509	0.17801055345719998813	0.05494001944914000263	
7	0	3.17492000000000018645	7.34471999999999969333	3.00722999999999984766	-0.30811412848552000021	0.39409303719165000857	0.71190071639246998991	
8	0	3.14591000000000020620	9.09295999999999970953	9.17900999999999989143	0.31388467034215000728	-0.99130938941532997788	0.17204613903960000454	
9	1	3.22849999999999992539	7.25025999999999992696	7.56146000000000029218	-0.48613464639519998745	0.35153713769182998172	-0.05975978177400000091	
10	1	3.10273999999999983146	9.16907999999999923091	4.62779999999999969162	0.12927960808314001295	-0.22609285163715001077	-0.26021649850354000577	
11	1	3.12285000000000012577	7.24528999999999978598	10.74440000000000061675	0.54989919090378003297	-0.05079004729634999799	-0.73847074823457004022	
12	1	3.13044000000000011141	9.18227000000000082025	1.49092000000000002302	0.21912741708225999537	0.03575116992678999822	-0.30101672611687002590	
13	0	1.52551999999999998714	10.05320000000000035811	3.02917000000000014026	-0.34705214159627001402	0.33004466553081002189	0.04332988022399000133	
14	0	1.59014000000000010893	0.85041100000000002801	9.21569000000000038142	-0.02689461846909000156	0.33532208573470001500	0.23790735045187000329	
15	1	1.51303000000000009706	9.88705999999999995964	7.62755000000000027427	0.13584081314723001066	0.38651048147049998915	0.10924329525338000169	
16	1	1.56289999999999995595	0.98111499999999995936	4.68822999999999989740	-0.17919563074198999186	0.08472989759110000074	-0.51388269720724000234	
17	1	1.51248999999999989008	9.89546999999999954412	10.84679999999999999716	0.72015150200930999613	0.27032491999734997723	-0.41800637735729001543	
18	1	1.56038999999999994373	1.09074000000000004285	1.44941000000000008718	-0.14494994997609000897	-0.65489069881661998718	0.79620747419810000700	
19	0	3.13140999999999980474	1.92785000000000006359	3.09210999999999991417	0.23197552054181999615	-0.85740738928215998182	-0.33089873198946001542	
20	0	3.13997999999999999332	3.59194000000000013273	9.21166999999999980275	0.54410705555437999248	0.74044259858451999534	-0.56115844395716996118	
21	1	3.16794000000000020023	1.72246999999999994557	7.64850000000000029843	-0.07778678975680999863	0.40860153112600999803	-0.21627016492467998621	
22	1	3.10990000000000010871	3.69939999999999979963	4.63440000000000029701	-0.01038188237358999948	0.65269485940853999573	0.08134907494677999507	
23	1	3.20074000000000014055	1.84668999999999994266	10.77239999999999930935	0.15522337352699999702	-0.94163243795222995036	-0.04602246300311999688	
24	1	3.15224999999999999645	3.70785000000000009024	1.48530000000000006466	0.04961774423569999953	0.01625522018445000119	-0.11601820468524999541	
25	0	4.71710999999999991417	4.63480999999999987438	3.05765999999999982251	-0.04752439422803000219	-0.09408126946585999850	0.68279903785738005340	
26	0	4.75607999999999986329	6.30407000000000028450	9.10866000000000042292	-0.08289899560286000113	0.41016313307134999455	1.68304091853852999527	
27	1	4.70720999999999989427	4.47552000000000038682	7.53932000000000002160	0.10202192658342999765	-0.00123631056382000003	0.66481454916931004284	
28	1	4.75295999999999985164	6.55309000000000008157	4.67384000000000021657	-0.33034530853083998725	-0.94603375310074000470	-0.43252312572973000693	
29	1	4.73312000000000043798	4.56547000000000036124	10.77500000000000035527	-0.13557147146000000926	-0.29519943173884000132	-0.39039032059603001601	
30	1	4.73702999999999985192	6.41875999999999979906	1.49347999999999991871	0.41817897559828998144	0.05253683089745000284	-0.37530222885262998211	
31	0	6.35057999999999989171	7.30072000000000009834	3.09370000000000011653	-0.20449415087948000225	0.48044430552896999487	-0.55511077652579998709	
32	0	6.31688000000000027256	9.04791999999999951854	9.18764000000000002899	-0.03827904692638999656	-0.18554092091936000286	0.45280721464979001301	
33	1	6.35038999999999997925	7.24390000000000000568	7.65226999999999968338	0.50041879278645995388	-0.14758010598398998980	-0.70645951456279998393	
34	1	6.48059000000000029473	9.14791999999999916326	4.69265000000000043201	-1.31950005552824989330	-0.20588372591814999013	-0.49318259368572997525	
35	1	6.36120000000000018758	7.21044999999999980389	10.80250000000000021316	-0.36238073080542998472	0.04494981453645000014	-0.85704750458707001926	
36	1	6.26532000000000000028	9.08568999999999959982	1.52808000000000010488	0.37323969807009999000	0.34811924849630998535	-0.46073407762919998953	
37	0	4.74077000000000037261	10.05560000000000009379	3.08721999999999985320	-0.09968194824017000133	-0.82586367579314001741	1.04094276017787001898	
38	0	4.82195999999999980190	0.87224699999999999456	9.14404000000000038995	-1.42653340521248006567	-0.01606887036876000069	1.48054800862824009755	
39	1	4.77848000000000006082	9.92275000000000062528	7.53378000000000014325	-0.18055664596178999659	0.09938434874066999491	0.60506745305873999019	
40	1	4.69923999999999963961	1.00680999999999998273	4.69446999999999992070	0.00576422020901999968	-0.15973360203293998638	-0.04815164220655000077	
41	1	4.72241999999999961801	9.93891999999999953275	10.78839999999999932356	0.20017661643886999756	0.13226616672443999856	-0.40163833024345002576	
42	1	4.76377999999999968139	0.95098800000000005550	1.56505000000000005222	-0.33081305367905000647	0.75122081406860996555	-0.61555975152393005434	
43	0	6.29352999999999962455	1.88240000000000007319	3.14069999999999982521	0.34191987492220998757	0.34976585557300998719	-0.03376794599539999914	
44	0	6.31219000000000018957	3.62166999999999994486	9.19569000000000080774	-0.77322156498817995463	-0.57707810692275995912	-0.02041211856054999871	
45	1	6.28854000000000024073	1.78178999999999998494	7.61092999999999975103	1.26961431436738991785	0.31363854038528998780	-0.24480502698792000471	
46	1	6.19693999999999967088	3.76527000000000011681	4.73559000000000018815	0.82720513977440002229	-0.39211501208311000388	-0.85389908075572995561	
47	1	6.36413000000000028678	1.81356000000000006089	10.78049999999999997158	-0.25586810446009000675	-0.19941904500973001158	-0.18443989717664999173	
48	1	6.31991000000000013870	3.63243999999999989114	1.49906000000000005912	-0.31052939556546999000	0.40173242529067998419	0.31638754058298002025	
49	0	7.88138999999999967372	4.57793000000000027683	3.07446000000000019270	-0.42725274736879997883	0.66593167368104000392	0.11334281736201999580	
50	0	7.98597999999999963450	6.36301000000000005485	9.19758000000000031093	-1.04083162921270999668	-1.01502016667807004602	0.70343784703316003526	
51	1	7.88785000000000025011	4.49050999999999955747	7.69880999999999993122	0.47290963795358997857	0.46652300749318997841	-0.96755509243102999495	
52	1	7.92297999999999991161	6.42977000000000042945	4.62073000000000000398	0.23130667704978000176	-0.33505622053423000928	0.21305325009403000558	
53	1	7.83061999999999969191	4.44156999999999957396	10.80460000000000064801	0.91126842955586995210	0.85027537000716002513	-0.40645154484147999474	
54	1	7.91350999999999960011	6.38917000000000001592	1.43213999999999996859	-0.48692537763075000035	-0.19921142861370000343	0.38229965340415000830	
55	0	9.46097999999999927923	7.30168000000000017025	2.99058000000000001606	0.46555576012390997853	0.72085517174444002642	-0.03220349078558999711	
56	0	9.44547999999999987608	9.02669000000000032458	9.29629000000000083048	2.08089785143830985348	-0.02946904899131999947	-0.86236134028015998254	
57	1	9.58212999999999937017	7.29061999999999965638	7.63173000000000012477	-0.78031268394436004154	-0.12556635995790998983	-0.09416780963345000588	
58	1	9.44308000000000014040	9.17320999999999919794	4.53179999999999960636	0.47165406993742997610	-0.56537783578626998882	0.62865723711975995958	
59	1	9.48954999999999948557	7.16769000000000033879	10.86689999999999933777	0.47099424928962002612	0.28348278369668000742	-0.62800716898382002995	
60	1	9.50774000000000008015	9.17545999999999928320	1.39298000000000010701	-0.33677476225005997801	-0.14080339723345000613	0.60468996372856997912	
61	0	7.88926999999999978286	10.05170000000000030127	3.02165000000000016911	0.21748305630569000901	-0.04771945993921000023	-0.61485569746476997910	
62	0	7.95181000000000004491	0.88481100000000001415	9.22481999999999935369	-0.43295709672899002074	0.30513492909283002064	-0.78971744091261997234	
63	1	7.98488000000000042178	9.91696999999999917463	7.67210999999999998522	-0.48231086556417002154	0.17925109550507001277	-0.35634566864700001343	
64	1	7.89259000000000021657	0.91316200000000002923	4.68282000000000042661	-0.01916483770427999944	0.64684710320422000862	-0.14727006555259999909	
65	1	7.87851999999999996760	9.91264999999999929514	10.77909999999999968168	-0.30144776021610997230	0.37783936451619998254	0.74950147835132996388	
66	1	7.89874000000000009436	1.03256999999999998785	1.49387000000000003119	-0.31630556791637998160	0.02455889261702999884	0.08760276256000999739	
67	0	9.44476000000000048828	1.90883000000000002672	3.10232000000000018858	0.43074716419712000270	0.06851020391274000032	0.13650047880089000163	
68	0	9.51812999999999931333	3.59836000000000000298	9.19131999999999926843	-0.95455315583018995884	-0.14614226284356998664	0.37410120869211999084	
69	1	9.57920999999999978058	1.79726999999999992319	7.63293999999999961403	-0.27230088520968998012	-0.31991439405813998365	0.23337816326273000400	
70	1	9.42117999999999966576	3.72956999999999982975	4.68102999999999980218	0.58345989991181002043	-0.02510084836764000030	-0.27034935693985001626	
71	1	9.44796000000000013586	1.81662999999999996703	10.79979999999999940030	0.77946144553148000167	-0.09012340690160999812	0.25172488433885997772	
72	1	9.48789999999999977831	3.75430999999999981398	1.49940999999999990955	-0.13984838147705000444	-0.63703209464084997737	0.05146254523785000201	
73	0	11.08500000000000085265	4.61854000000000031179	3.04977000000000009194	-0.93373176893539000520	0.35960450801167997970	-0.20983392736645001264	
74	0	11.09810000000000052012	6.32240999999999964132	9.15859999999999985221	-0.57681876533241005500	0.06424113678062000343	1.61569170512097004533	
75	1	11.07210000000000071907	4.52318999999999959982	7.62821999999999977859	0.10350363347070000442	-0.09778962742614000225	-0.65101319877991004059	
76	1	11.06320000000000014495	6.52041000000000003922	4.59998000000000040188	-0.10579372769073999705	-0.70224823416088999473	-0.10682385175566999624	
77	1	11.03570000000000028706	4.46185000000000009379	10.74390000000000000568	0.54612323265278994722	0.67748602882728004015	0.47488456160020997565	
78	1	11.05320000000000035811	6.38553000000000015035	1.41826000000000007617	0.14146193962587999549	0.14055685450391999791	0.17549249304075001388	
79	0	-0.05822399999999999798	7.36615999999999981895	2.99538999999999999702	0.52874633508250001857	-0.52898429193892004818	0.02801060317212000078	
80	0	-0.02900200000000000000	9.00317000000000078330	9.26118999999999914507	0.34970182257094001299	0.67958616848225994467	-0.57396006302707003321	
81	1	-0.07738730000000000608	7.31479999999999996874	7.61904000000000003467	0.68940044523573995594	-0.68362610386773003945	-0.65266257413211004046	
82	1	-0.09173080000000000123	9.13700000000000045475	4.61455000000000037375	0.59857920899368000089	0.06688072598359999510	-0.08959007691063999856	
83	1	0.04587920000000000192	7.16101000000000009749	10.74540000000000006253	-0.27887551664026000164	-0.02304664540146000168	0.20601830063761999989	
84	1	-0.13386600000000001276	9.14714000000000027057	1.42453000000000007397	0.90026592331137000880	0.35365139897821001869	0.07820100733778999336	
85	0	11.06659999999999932641	10.08880000000000087823	3.05100000000000015632	-0.56190209993035999947	-0.68876494025180001746	-0.31486061215723998297	
86	0	11.13390000000000057412	0.92255600000000004268	9.28088999999999941792	-0.42115548149026998948	-0.02081387435955999940	-0.84188619160083999482	
87	1	11.13879999999999981242	9.93674999999999997158	7.62828000000000017167	-0.83075780148792000013	0.28263900479127002097	1.01160214164650996693	
88	1	11.06949999999999967315	0.98655300000000001326	4.68477999999999994429	-0.37432704548814998979	0.27825616162958999311	0.04316759512429999696	
89	1	11.11180000000000056559	9.96738000000000035072	10.79420000000000001705	-0.55159401087012005505	-0.30606844746898997922	0.65874732743570996174	
90	1	11.04420000000000001705	1.03354999999999996874	1.54285000000000005471	-0.04527692121857000013	0.34858535277262997498	-0.48662909591490000061	
91	0	-0.05166289999999999771	1.93050999999999994827	3.12130000000000018545	0.70833339788031002282	-1.22537593255951993143	-0.50192128056375995282	
92	0	0.00599296000000000030	3.67754000000000003112	9.18804000000000087311	0.10378437680101999796	-1.43361854195117000010	0.44556349874446998793	
93	1	-0.00683356999999999975	1.79123999999999994337	7.65258000000000038199	0.29595763818065001782	0.18442510660385000310	0.18280372294189001225	
94	1	-0.05510520000000000002	3.76510999999999995680	4.56043999999999982720	0.33340369438508998812	-0.06827231100750000281	1.70742380414652994425	
95	1	0.11966499999999999360	1.82000000000000006217	10.82879999999999931504	-0.67366734573149000820	0.37773174949512000609	-0.37331032988318002541	
96	1	0.01401559999999999959	3.58558000000000021146	1.48668000000000000149	-0.61539163914502004182	1.19702405283973001282	-0.49521618453707999530	
Energy
-80524.81298712690477259457
PlusStress:	xx	yy	zz	yz	xz	xy
2.69782139106057528011	19.64590781810736430657	1.58058570463671577144	-6.92092628705272439049	4.25343972061151731623	0.52512368622163019261
END_CFG

BEGIN_CFG
Size
96
Supercell
12.62281496458682	0.0	0.0
0.0	11.060351923522276	0.0
0.0	0.0	12.434356946920126
AtomData:	id	type	cartes_x	cartes_y	cartes_z	fx	fy	fz
1	0	1.46385000000000009557	4.53594999999999970441	3.10175000000000000711	1.73101795119614010332	-1.55429688433426993477	-1.24469537093990001431	
2	0	1.56594999999999995310	6.51637000000000021771	9.26970000000000027285	-0.03326757548374000006	-2.94808334329472998547	-0.09605019145236999567	
3	1	1.48353000000000001535	4.60839999999999960778	7.68090000000000028280	0.27354297367412999664	0.93338304880000000363	-1.34992926759218989652	
4	1	1.64956999999999998074	6.28753000000000028535	4.58394999999999974705	-0.72684158597930004220	1.16358848367988998440	0.43315527920320001654	
5	1	1.44672000000000000597	4.46072000000000024045	10.81499999999999950262	1.18306055622308003983	0.98929104446685001140	-0.41617484728875997479	
6	1	1.45968000000000008853	6.29619999999999979678	1.39190999999999998060	1.18201257160154993286	-0.08283058506271999410	0.21638309696023000361	
7	0	3.14264000000000010004	7.24922999999999984055	3.00007000000000001450	-0.73858856633084002397	0.15077878086880999731	-1.82846048457486998196	
8	0	3.25453999999999998849	9.08117000000000018645	9.19486999999999987665	0.24333052218511000420	0.75576795921385997445	0.62425182940631995798	
9	1	3.14232999999999984553	7.28685999999999989285	7.63959000000000010289	0.88079122979088997347	-0.27441616077560998521	0.04228487126904999921	
10	1	3.24420000000000019469	9.05699000000000076227	4.59077000000000001734	-0.76368289658104004936	-0.08105882234045999613	0.79523183450049994558	
11	1	3.22319999999999984297	7.17044999999999976836	10.79470000000000062812	0.32536539516626999946	1.40529333275962997618	0.23304155949831001360	
12	1	2.98838999999999987978	9.18560000000000087539	1.51828000000000007397	1.33749143671474990391	-0.54051349505773005344	-0.64024364622615004272	
13	0	1.57207999999999992191	10.00099999999999944578	3.15754000000000001336	-0.32161343862232000257	0.94481185217187002578	-0.82561691226462996518	
14	0	1.70029999999999992255	0.82082399999999999807	9.06076000000000014722	-0.36448026003336997380	0.19791964711487999851	1.32260423816297989497	
15	1	1.73700000000000009948	10.00169999999999959073	7.61758000000000023988	-0.22504132839307000591	-0.23993806784076998628	-0.99276273111454005349	
16	1	1.64094000000000006523	0.78560600000000002652	4.62647999999999992582	-1.20985946426826007638	0.02770173520218000007	1.48672571297846989324	
17	1	1.68856000000000006089	10.14390000000000036096	10.62289999999999956515	0.20100293783059000607	-0.75038010150656997421	1.50384709099165991830	
18	1	1.53885000000000005116	0.82915700000000003289	1.57407999999999992369	-0.07432502737764999645	-0.00656590527116000019	0.03531004525371000263	
19	0	3.07295000000000007034	1.80769000000000001904	3.13357000000000018858	1.83481411759386991989	-1.04127884157194006143	-2.37810384525239992826	
20	0	3.02932999999999985619	3.68871999999999999886	9.10598000000000062926	1.71649557420937992624	-1.72335891256679007988	1.55221038984373005398	
21	1	3.13764000000000020663	1.79198999999999997179	7.48088999999999959556	0.65448392574282998613	0.55417848263118996144	0.22587368134023000366	
22	1	3.16067000000000009052	3.54161999999999999034	4.68860999999999972232	-0.38431269720501998188	1.31392902280104006962	-0.24037288406957998954	
23	1	3.19029000000000007020	1.73557000000000005713	10.72400000000000019895	-0.20779614176395999614	0.86246878071048005410	-0.61533779313977998715	
24	1	3.20475999999999983103	3.58422999999999980503	1.52007000000000003226	-2.13964780357534989363	-0.15272404404552999968	-0.40707858085289000405	
25	0	4.70629000000000008441	4.52212000000000013955	2.98586999999999980204	-1.40269896988296993712	1.44583536004017010335	0.73853885976305999606	
26	0	4.88055000000000038796	6.43074999999999974420	9.22122000000000063835	-1.95810922659676989177	-0.26459028520960997666	-0.22712582890859001061	
27	1	4.72944000000000031037	4.53864000000000000767	7.68058999999999958419	0.48937521561572999707	0.75887349563905004413	-0.44179267621207002348	
28	1	4.69390000000000018332	6.39986999999999994770	4.47409999999999996589	0.66962892062783996305	-0.15233424366164000086	0.99939765781090994512	
29	1	4.57734000000000040842	4.53664999999999984936	10.71369999999999933493	0.99693213610302999772	0.11818752425805000017	0.34933570389529999822	
30	1	4.63626000000000004775	6.29729999999999989768	1.26184999999999991616	0.50199271184043003924	0.73037666384424004828	1.41340409918183995686	
31	0	6.28045000000000008811	7.34128999999999987125	2.93948000000000009280	-0.49177275830037997517	-0.41535212620361999791	0.27263335802117999451	
32	0	6.37051999999999996049	9.23603999999999913939	9.25986999999999937927	-1.17090740842963003665	-0.84410069852810998281	0.45081743152268999308	
33	1	6.44418000000000024130	7.44838000000000022283	7.65765999999999991132	-0.10592798178826999533	-0.80727549960177003019	0.31711577185185002570	
34	1	6.22573000000000043030	9.29828000000000010061	4.57301999999999964075	0.60169924295320997842	-1.00968085170049004518	0.59060511324817999146	
35	1	6.31862000000000012534	7.38295000000000012363	10.94860000000000077591	0.44731321024358999816	-0.07832340517513000644	-1.36268749112130005408	
36	1	6.33023000000000024556	9.22705999999999981753	1.58010000000000006004	-0.07639178968125000246	0.62347084408619002360	-1.07441562632534992616	
37	0	4.65148999999999990251	10.13030000000000008242	3.03078000000000002956	0.43596021773566001611	-0.59378776064468996587	-0.65638538990039996257	
38	0	4.75192999999999976524	0.93130299999999999194	9.12137000000000064404	-0.44784888189040000794	-0.95715596575738004503	-0.83582517540824996516	
39	1	4.78249999999999975131	9.98820000000000085549	7.57491999999999965354	0.16422482583226000186	0.79668711460360996934	0.71359318115006997729	
40	1	4.63089999999999957225	0.86519199999999996109	4.61164000000000040558	0.86123711423794002684	0.18610599951660000695	0.45838064632533997989	
41	1	4.73244000000000042405	10.19420000000000037232	10.84849999999999958789	0.14682715420215000646	-0.54076251430747002136	-1.16476169979629995410	
42	1	4.74007000000000022766	0.78383700000000000596	1.38220999999999993868	-0.62762548245376004186	1.12031112735327997854	1.27101952113713001502	
43	0	6.28826999999999980417	1.84166999999999991822	3.10056999999999982620	-0.88048871194573996579	-0.48121452528714997454	-1.04513181759969997486	
44	0	6.34382000000000001450	3.67409000000000007802	9.26966999999999963222	-0.10541759008772000339	-0.10462675636448999505	-0.36066825379772998739	
45	1	6.28490000000000037517	2.00362000000000017863	7.51625000000000031974	0.21526303089067000407	-0.85758761955798001875	0.82445629866165004440	
46	1	6.27596000000000042718	3.82457000000000002515	4.51393999999999984141	0.45672506843604998572	-1.62260319134193009560	0.95138628043549000601	
47	1	6.19031999999999982265	1.77014000000000004675	10.72819999999999929230	1.39309430984395010711	0.64950090904788004842	0.21421717773519999284	
48	1	6.03186999999999962085	3.57360999999999995325	1.41328000000000009173	2.47029423099849010370	-0.44073677270009997686	-0.82778081856883001244	
49	0	7.82685999999999992838	4.51302999999999965297	2.86390000000000011227	0.10573706910402000392	-0.31709526450088998395	0.62206566250229999859	
50	0	7.92595999999999989427	6.40990999999999999659	9.27683999999999997499	0.53933051044883995040	0.18951283421844999921	0.98670754805873994719	
51	1	7.98421999999999965070	4.52238999999999968793	7.60085999999999994969	-0.22227062099350000657	0.68641900234613995035	1.67587396858150006196	
52	1	7.71548000000000033793	6.22811999999999965638	4.46598000000000006082	0.92447823301931997264	0.93737630751403999696	1.05400149389946995448	
53	1	7.99476000000000031065	4.63705000000000033822	10.95679999999999942872	-0.49646725280239001332	-0.56517644322084004127	-1.24875743295350005724	
54	1	7.91373999999999977462	6.48139999999999982805	1.41989000000000009649	-0.10877287253157999491	-0.70828767116867996645	-0.32866736347182001765	
55	0	9.47344999999999970441	7.13381000000000042860	3.12640999999999991132	0.01680206746432999845	2.56532472773207986805	-1.58904109279750005435	
56	0	9.45776000000000038881	9.18300999999999945089	9.28631999999999990791	1.24486843213228004501	0.64276794626411004607	-1.24242813434911991699	
57	1	9.55607999999999968566	7.18846999999999969333	7.77186999999999983402	-0.03879201985145999676	1.17137035760494989667	-0.06831902337782000401	
58	1	9.50511999999999979138	9.10491000000000028081	4.58352000000000003865	-0.33726470211185000103	-0.03963670807718999711	0.60554213165755998993	
59	1	9.55634000000000050079	7.51182000000000016371	10.93130000000000023874	-0.50043190425372996444	-1.31938450257547001954	-0.44613190560513998895	
60	1	9.42662999999999939860	9.19698999999999955435	1.57881999999999989015	0.07703037018672000136	-0.52835010568157003696	0.00858131578226000065	
61	0	7.88544999999999962625	10.24220000000000041496	3.14599999999999990763	-0.33474320589036998808	-1.86444886424628997190	-0.54641130586396002844	
62	0	7.84916000000000035897	0.94531399999999998762	9.09277999999999941849	0.31100945141046998366	-0.21908264474305000347	2.45575997544825996854	
63	1	7.85592999999999985761	10.12950000000000017053	7.67311000000000031918	0.80618420379374999829	-0.16353497610136000229	-0.62634378463874995635	
64	1	7.94329000000000018389	1.03665999999999991488	4.66380999999999978911	-0.76780612949182003302	-0.51805067969175000453	0.15244333456477998645	
65	1	7.86258999999999996788	10.11539999999999928093	10.83639999999999936620	0.61976948818327004531	0.99998370287741000784	-0.29743077056515998535	
66	1	7.76041000000000025238	0.82789000000000001478	1.45673000000000008036	0.72638713453879999449	0.91496501487965997690	0.24944054924753999991	
67	0	9.45185000000000030695	1.79838000000000008960	2.98890000000000011227	-1.12810773905289996044	0.41018401496430001441	1.69791486944507008516	
68	0	9.58530000000000015348	3.63606000000000006978	9.31658000000000008356	-2.28938588017726019075	0.88116031999513000361	-0.90127244498443004339	
69	1	9.42694000000000009720	1.89456000000000002181	7.65078000000000013614	0.97439372066039997566	-0.42207724916019001560	-0.25192351284008002166	
70	1	9.40091999999999927695	3.57060000000000021814	4.76970000000000027285	-0.09222671651524999570	0.46809591573497999484	-2.22160917853816020084	
71	1	9.62053000000000047010	1.87090000000000000746	10.76890000000000036096	-1.15258304079466000758	-1.54561442079057997923	0.40418170548700999012	
72	1	9.51413999999999937529	3.55351000000000016854	1.41093000000000001748	-0.86142829447424995593	0.44565227890468001037	-0.41886665228656000393	
73	0	10.91649999999999920419	4.47635999999999967258	3.06292000000000008697	2.64106029048783996771	0.07052927521108999509	0.35699965646370002137	
74	0	11.16409999999999946851	6.45600000000000040501	9.39805999999999919226	-1.29821717889267995716	-1.56973604060539995153	-1.48043369151805004336	
75	1	11.11359999999999992326	4.47536000000000022681	7.78158999999999956287	-0.09568838243131999599	1.25579539324140010415	-1.02889898493526010803	
76	1	11.15160000000000017906	6.30041999999999990933	4.61685999999999996390	-0.46318694896279000162	0.11918841240095000289	-0.22334728418123001026	
77	1	11.14310000000000044906	4.41608000000000000540	10.86219999999999963336	0.69712380133014995032	0.89176572936646003598	0.03099017162549999940	
78	1	11.07970000000000077023	6.40082000000000039819	1.36105999999999993655	-0.56027882879409995898	-0.51635212020623000306	1.33043216565648991789	
79	0	0.05756950000000000262	7.29312000000000004718	2.94960999999999984311	-1.40199660528657998881	-0.20785238439764999741	0.59876071519323004200	
80	0	0.13408700000000001173	9.13469000000000086459	9.17048999999999914223	-1.17238851279979994224	0.69410879086843002561	0.18140173758329000697	
81	1	0.00977249000000000000	7.27897000000000016229	7.64639999999999986358	-0.23624303150528000450	0.35603957237794997548	0.14670928019498000183	
82	1	-0.00791733000000000020	8.97733999999999987551	4.61678000000000032799	-0.25127338574452001696	1.09265317758918989455	0.13253987528578001220	
83	1	0.00702952999999999998	7.43140999999999962711	10.85130000000000016769	1.15136556770007003614	0.27945447676086998534	0.97664986436624001698	
84	1	0.09104239999999999555	9.29546999999999989939	1.40366999999999997328	-0.94281673804877996758	-0.78853493930568996362	0.88077597507248994724	
85	0	11.04129999999999967031	10.16859999999999963904	3.04068000000000004945	0.60851912677714004030	-2.62497374612321010545	0.11252851359837000300	
86	0	11.11079999999999934346	0.86767600000000000282	9.17639999999999922409	0.09174612876682999851	0.40480212329566001017	0.45908108305392997250	
87	1	11.19009999999999926956	10.09520000000000017337	7.66537999999999986045	-1.25446385201880006299	-0.54870109664501998115	-0.37218942854522002461	
88	1	10.91029999999999944293	0.76277399999999995206	4.66092999999999957339	0.80163752638066998468	1.10322310822617009052	0.22481477798612001240	
89	1	11.17609999999999992326	10.16760000000000019327	10.72509999999999941167	-0.39104354330875001899	-0.59014830219487002250	0.45269368158267997426	
90	1	10.95689999999999919567	0.88137500000000001954	1.51859000000000010644	1.30873756992772993790	-0.00287971708716999990	-0.95935634520492996113	
91	0	-0.02882699999999999846	1.74377000000000004221	3.16123999999999982791	-0.61378718405034005112	-0.03345253029492999824	-0.63400651696779997124	
92	0	0.08411549999999999583	3.51461999999999985533	9.15375000000000049738	-1.19427823193253002110	0.28158267576943002419	1.58577331245075003885	
93	1	0.06279740000000000322	1.62299999999999999822	7.62340000000000017621	-0.25121981655533998090	1.04063681247463990509	-1.33342741099305994723	
94	1	0.04084619999999999918	3.53783000000000003027	4.77831000000000027939	-1.09419345069921991609	0.41238813625995002221	-1.00283679419814997225	
95	1	0.21770100000000000562	1.72985999999999995325	10.74290000000000055991	-0.81809956673691996976	-0.53139421652890994618	-0.23751602802506999179	
96	1	-0.05004080000000000333	3.53163999999999989043	1.47320999999999990848	-0.23405605042263000204	0.14690068736893999168	1.07213232431107008402	
Energy
-80519.40746793350263033062
PlusStress:	xx	yy	zz	yz	xz	xy
7.88597951525075657742	-12.44863984834501025034	-4.86354322538897143602	-1.01042831666040133776	-3.83109367680859680405	1.90082196975333683753
END_CFG

BEGIN_CFG
Size
96
Supercell
12.703313475820122	0.0	0.0
0.0	11.008149754530766	0.0
0.0	0.0	12.484771137317892
AtomData:	id	type	cartes_x	cartes_y	cartes_z	fx	fy	fz
1	0	1.67610999999999998877	4.56346999999999969333	3.04146999999999989583	0.08665013157228000640	-1.30495195785633000263	-0.46801157539406001984	
2	0	1.42009999999999991793	6.33424000000000031463	9.37008999999999936392	-0.48303775108036001162	0.17933848186436998629	-3.08356977829919998157	
3	1	1.36353999999999997428	4.38337000000000021060	7.74507000000000012108	0.38478620302318000679	0.86418385091048999236	0.27900899913382998241	
4	1	1.54227000000000002977	6.38042999999999960181	4.53749999999999964473	-0.23908229789210999616	-0.67013318776723995729	1.44896000433614990932	
5	1	1.70662000000000002586	4.52831999999999990081	10.88790000000000013358	-1.65565615728173010091	-0.65307571550436005481	0.28691921622048999208	
6	1	1.58387999999999995460	6.24917999999999995708	1.42205000000000003624	0.03214999193262999683	1.05117058661681994636	-0.23518203200313000933	
7	0	3.05635000000000012221	7.29741999999999979565	3.04418999999999995154	1.30049010248732010986	0.85757328599322002471	-1.37023889454159997214	