BEGIN_CFG
 Size
    96
 Supercell
        12.638883      0.000000      0.000000
         0.000000     10.945594      0.000000
         0.000000      0.000000     12.258838
 AtomData:  id type       cartes_x      cartes_y      cartes_z           fx          fy          fz
             1    0       1.579860      4.560664      3.064709     0.000000    0.000000    0.000000
             2    0       1.579860      6.384930      9.194128     0.000000   -0.000000   -0.000000
             3    1       1.579860      4.560664      7.616701     0.000000    0.000000    0.044631
             4    1       1.579860      6.384930      4.642137     0.000000   -0.000000   -0.044631
             5    1       1.579860      4.560664     10.771556     0.000000    0.000000   -0.044631
             6    1       1.579860      6.384930      1.487282     0.000000   -0.000000    0.044631
             7    0       3.159721      7.297063      3.064709    -0.000000    0.000000    0.000000
             8    0       3.159721      9.121328      9.194128    -0.000000   -0.000000   -0.000000
             9    1       3.159721      7.297063      7.616701    -0.000000    0.000000    0.044631
            10    1       3.159721      9.121328      4.642137     0.000000   -0.000000   -0.044631
            11    1       3.159721      7.297063     10.771556    -0.000000    0.000000   -0.044631
            12    1       3.159721      9.121328      1.487282    -0.000000   -0.000000    0.044631
            13    0       1.579860     10.033461      3.064709     0.000000    0.000000   -0.000000
            14    0       1.579860      0.912133      9.194128     0.000000   -0.000000   -0.000000
            15    1       1.579860     10.033461      7.616701     0.000000    0.000000    0.044631
            16    1       1.579860      0.912133      4.642137     0.000000   -0.000000   -0.044631
            17    1       1.579860     10.033461     10.771556     0.000000    0.000000   -0.044631
            18    1       1.579860      0.912133      1.487282     0.000000   -0.000000    0.044631
            19    0       3.159721      1.824266      3.064709     0.000000    0.000000   -0.000000
            20    0       3.159721      3.648531      9.194128    -0.000000   -0.000000   -0.000000
            21    1       3.159721      1.824266      7.616701     0.000000    0.000000    0.044631
            22    1       3.159721      3.648531      4.642137    -0.000000   -0.000000   -0.044631
            23    1       3.159721      1.824266     10.771556    -0.000000    0.000000   -0.044631
            24    1       3.159721      3.648531      1.487282     0.000000   -0.000000    0.044631
            25    0       4.739581      4.560664      3.064709    -0.000000    0.000000   -0.000000
            26    0       4.739581      6.384930      9.194128    -0.000000   -0.000000   -0.000000
            27    1       4.739581      4.560664      7.616701    -0.000000    0.000000    0.044631
            28    1       4.739581      6.384930      4.642137    -0.000000   -0.000000   -0.044631
            29    1       4.739581      4.560664     10.771556    -0.000000    0.000000   -0.044631
            30    1       4.739581      6.384930      1.487282    -0.000000   -0.000000    0.044631
            31    0       6.319442      7.297063      3.064709     0.000000    0.000000   -0.000000
            32    0       6.319442      9.121328      9.194128     0.000000   -0.000000   -0.000000
            33    1       6.319442      7.297063      7.616701     0.000000    0.000000    0.044631
            34    1       6.319442      9.121328      4.642137     0.000000   -0.000000   -0.044631
            35    1       6.319442      7.297063     10.771556     0.000000    0.000000   -0.044631
            36    1       6.319442      9.121328      1.487282     0.000000   -0.000000    0.044631
            37    0       4.739581     10.033461      3.064709    -0.000000    0.000000   -0.000000
            38    0       4.739581      0.912133      9.194128    -0.000000   -0.000000   -0.000000
            39    1       4.739581     10.033461      7.616701    -0.000000    0.000000    0.044631
            40    1       4.739581      0.912133      4.642137    -0.000000   -0.000000   -0.044631
            41    1       4.739581     10.033461     10.771556    -0.000000    0.000000   -0.044631
            42    1       4.739581      0.912133      1.487282    -0.000000   -0.000000    0.044631
            43    0       6.319442      1.824266      3.064709     0.000000    0.000000    0.000000
            44    0       6.319442      3.648531      9.194128     0.000000   -0.000000   -0.000000
            45    1       6.319442      1.824266      7.616701     0.000000    0.000000    0.044631
            46    1       6.319442      3.648531      4.642137     0.000000   -0.000000   -0.044631
            47    1       6.319442      1.824266     10.771556     0.000000    0.000000   -0.044631
            48    1       6.319442      3.648531      1.487282     0.000000   -0.000000    0.044631
            49    0       7.899302      4.560664      3.064709    -0.000000    0.000000   -0.000000
            50    0       7.899302      6.384930      9.194128    -0.000000   -0.000000   -0.000000
            51    1       7.899302      4.560664      7.616701    -0.000000    0.000000    0.044631
            52    1       7.899302      6.384930      4.642137    -0.000000   -0.000000   -0.044631
            53    1       7.899302      4.560664     10.771556     0.000000    0.000000   -0.044631
            54    1       7.899302      6.384930      1.487282    -0.000000   -0.000000    0.044631
            55    0       9.479162      7.297063      3.064709     0.000000    0.000000    0.000000
            56    0       9.479162      9.121328      9.194128     0.000000   -0.000000   -0.000000
            57    1       9.479162      7.297063      7.616701     0.000000    0.000000    0.044631
            58    1       9.479162      9.121328      4.642137     0.000000   -0.000000   -0.044631
            59    1       9.479162      7.297063     10.771556     0.000000    0.000000   -0.044631
            60    1       9.479162      9.121328      1.487282     0.000000   -0.000000    0.044631
            61    0       7.899302     10.033461      3.064709    -0.000000    0.000000   -0.000000
            62    0       7.899302      0.912133      9.194128    -0.000000   -0.000000   -0.000000
            63    1       7.899302     10.033461      7.616701    -0.000000    0.000000    0.044631
            64    1       7.899302      0.912133      4.642137    -0.000000   -0.000000   -0.044631
            65    1       7.899302     10.033461     10.771556     0.000000    0.000000   -0.044631
            66    1       7.899302      0.912133      1.487282    -0.000000   -0.000000    0.044631
            67    0       9.479162      1.824266      3.064709     0.000000    0.000000   -0.000000
            68    0       9.479162      3.648531      9.194128     0.000000   -0.000000   -0.000000
            69    1       9.479162      1.824266      7.616701     0.000000    0.000000    0.044631
            70    1       9.479162      3.648531      4.642137     0.000000   -0.000000   -0.044631
            71    1       9.479162      1.824266     10.771556     0.000000    0.000000   -0.044631
            72    1       9.479162      3.648531      1.487282     0.000000   -0.000000    0.044631
            73    0      11.059023      4.560664      3.064709    -0.000000    0.000000   -0.000000
            74    0      11.059023      6.384930      9.194128    -0.000000   -0.000000   -0.000000
            75    1      11.059023      4.560664      7.616701    -0.000000    0.000000    0.044631
            76    1      11.059023      6.384930      4.642137    -0.000000   -0.000000   -0.044631
            77    1      11.059023      4.560664     10.771556    -0.000000    0.000000   -0.044631
            78    1      11.059023      6.384930      1.487282    -0.000000   -0.000000    0.044631
            79    0       0.000000      7.297063      3.064709     0.000000    0.000000    0.000000
            80    0       0.000000      9.121328      9.194128    -0.000000   -0.000000   -0.000000
            81    1       0.000000      7.297063      7.616701     0.000000    0.000000    0.044631
            82    1       0.000000      9.121328      4.642137    -0.000000   -0.000000   -0.044631
            83    1       0.000000      7.297063     10.771556     0.000000    0.000000   -0.044631
            84    1       0.000000      9.121328      1.487282    -0.000000   -0.000000    0.044631
            85    0      11.059023     10.033461      3.064709    -0.000000    0.000000   -0.000000
            86    0      11.059023      0.912133      9.194128    -0.000000   -0.000000   -0.000000
            87    1      11.059023     10.033461      7.616701    -0.000000    0.000000    0.044631
            88    1      11.059023      0.912133      4.642137    -0.000000   -0.000000   -0.044631
            89    1      11.059023     10.033461     10.771556    -0.000000    0.000000   -0.044631
            90    1      11.059023      0.912133      1.487282    -0.000000   -0.000000    0.044631
            91    0       0.000000      1.824266      3.064709     0.000000    0.000000    0.000000
            92    0       0.000000      3.648531      9.194128     0.000000   -0.000000   -0.000000
            93    1       0.000000      1.824266      7.616701     0.000000    0.000000    0.044631
            94    1       0.000000      3.648531      4.642137     0.000000   -0.000000   -0.044631
            95    1       0.000000      1.824266     10.771556     0.000000    0.000000   -0.044631
            96    1       0.000000      3.648531      1.487282     0.000000   -0.000000    0.044631
 Energy
     -80527.363718079752
 PlusStress:  xx          yy          zz          yz          xz          xy
        -0.39943    -0.39943     2.27330    -0.00000    -0.00000     0.00000
END_CFG

BEGIN_CFG
 Size
    96
 Supercell
        12.671760      0.000000      0.000000
         0.000000     10.894974      0.000000
         0.000000      0.000000     12.270869
 AtomData:  id type       cartes_x      cartes_y      cartes_z           fx          fy          fz
             1    0       1.665890      4.489320      2.988900     0.507211    0.139044    1.909983
             2    0       1.568510      6.362820      9.264050    -0.319736   -0.109480   -0.151904
             3    1       1.429320      4.548520      7.654500     0.729825    0.324771   -0.067023
             4    1       1.720390      6.376110      4.657330    -0.655390   -0.935225   -0.032573
             5    1       1.683640      4.483510     10.832200    -1.334652    1.042422    0.450113
             6    1       1.662630      6.340520      1.584560    -0.214289    0.490006   -0.818180
             7    0       3.236610      7.289870      3.110060     0.609882    0.864076   -0.654345
             8    0       3.076030      9.135690      9.224920     0.679329   -0.539936   -0.080292
             9    1       3.101380      7.250660      7.660460     0.050610    0.540943    0.019156
            10    1       3.203090      9.146590      4.748500    -0.124874   -0.358610   -0.711775
            11    1       3.194470      7.293850     10.774500    -0.430360    0.256257    0.447750
            12    1       3.303750      9.196920      1.542100    -0.817864   -0.755145    0.012781
            13    0       1.666880     10.061700      3.101270    -0.520210    0.067631   -0.014975
            14    0       1.421020      0.960725      9.184390     1.186751   -1.208453    0.766107
            15    1       1.466250      9.953000      7.627090     0.499880    0.617380   -0.386099
            16    1       1.647790      1.137260      4.604950    -0.666675   -0.848840   -0.460942
            17    1       1.462010      9.993030     10.737600     0.043111    0.376464    0.436314
            18    1       1.514800      0.938165      1.351920     0.422205    0.082962    1.851209
            19    0       3.305060      1.841600      3.041390    -1.123634   -0.585632   -0.734392
            20    0       3.079420      3.674690      9.169600     0.693143   -1.067156   -0.321624
            21    1       2.995640      1.762820      7.658840     0.929450    0.815786   -0.717702
            22    1       3.418950      3.556870      4.621940    -1.176466    1.411976   -0.420987
            23    1       3.063160      1.811370     10.729600     0.112755    0.168988    0.073664
            24    1       3.314730      3.596570      1.401910    -0.505785    0.433507    0.279177
            25    0       4.832060      4.657170      2.973940    -0.916092   -1.153039    1.542567
            26    0       4.743090      6.439250      9.198700     0.205437   -0.217000    0.362837
            27    1       4.641660      4.655390      7.679870     0.380101   -0.619731   -1.138143
            28    1       4.849860      6.439040      4.672170    -0.378816   -0.638054   -0.425474
            29    1       4.729740      4.474070     10.717600     0.114816    0.788890    0.077540
            30    1       4.820810      6.433670      1.366760    -0.098512    0.165064    1.093582
            31    0       6.429330      7.267770      3.082610    -1.528168    0.469719   -0.551577
            32    0       6.358620      9.179850      9.203850    -1.800672   -1.467661   -1.140609
            33    1       6.311750      7.318720      7.518880    -0.170248    0.235388    1.289115
            34    1       6.321130      9.016260      4.792790     0.661237    0.536426   -1.015500
            35    1       6.314710      7.339220     10.827900     0.066939   -0.018385   -0.950287
            36    1       6.352830      9.106930      1.617480     0.186911   -0.219274   -1.360629
            37    0       4.828290     10.000100      3.154750    -0.619716   -0.422681    1.480521
            38    0       4.687560      0.941497      9.175480    -0.404553    0.036103   -0.772234
            39    1       4.606800      9.961730      7.611650     0.815104    0.353608    0.355939
            40    1       4.692010      0.874421      4.766900     0.673166    0.359325   -0.316575
            41    1       4.781510     10.119800     10.772300    -0.522581   -0.931202    0.010620
            42    1       4.913390      0.822144      1.588370    -0.547330    0.840313   -0.808316
            43    0       6.342470      1.809670      3.212610    -0.011924   -0.274163   -0.847497
            44    0       6.297060      3.672750      9.105930    -0.006516   -0.742704    0.514837
            45    1       6.327200      1.760070      7.549600    -0.743099    0.959893    0.108015
            46    1       6.281730      3.673290      4.685850     0.612371    0.434640   -0.041878
            47    1       6.214890      1.782810     10.776200     0.885954    0.818921   -0.695821
            48    1       6.350480      3.572670      1.591780     0.336355   -0.182267   -1.356321
            49    0       7.870300      4.528400      3.064210     1.713936    0.834928    0.206143
            50    0       7.870040      6.388730      9.151840    -0.588782    0.509865   -0.114496
            51    1       7.914740      4.586600      7.534290    -1.156249    0.187944   -0.577583
            52    1       7.901150      6.423300      4.672030     0.280186   -1.388179    0.530971
            53    1       7.861230      4.625560     10.723700    -0.392177   -0.618087   -0.163137
            54    1       7.902400      6.466850      1.338710     0.273927   -1.021932    1.558796
            55    0       9.453780      7.214430      3.127440     0.678794    0.991188   -1.479851
            56    0       9.430310      9.081680      9.069510     0.838093    0.456168    0.194000
            57    1       9.365460      7.246830      7.506800     0.838208    0.354302    0.291989
            58    1       9.586260      9.084430      4.646980    -0.566717   -0.088843   -0.025821
            59    1       9.422340      7.343310     10.719200     0.127800   -0.107113    0.008629
            60    1       9.544940      9.008100      1.521330    -0.277467    0.410861    0.121842
            61    0       7.923920     10.019900      3.087660     0.746614   -2.270268    0.878045
            62    0       7.858710      0.936295      9.133210     0.584273    0.507759    0.787300
            63    1       7.844090     10.051800      7.559790     0.145162   -0.278547   -0.545495
            64    1       7.969520      0.849770      4.626970    -0.741244    0.388238    1.949245
            65    1       7.981030     10.006100     10.648100    -0.341056    0.450569    1.462723
            66    1       7.845900      0.819556      1.509340     0.289480    1.202490   -0.151082
            67    0       9.423350      1.769610      3.104720     1.562254    0.210919   -1.379522
            68    0       9.395950      3.718260      9.066730     1.050974   -0.542346    1.679820
            69    1       9.485230      1.835120      7.575060     0.001906    0.247560    0.154994
            70    1       9.538700      3.564080      4.603970    -0.458937    0.999156    0.092401
            71    1       9.414960      1.926460     10.736700     0.115516   -0.107931   -0.498401
            72    1       9.562990      3.560460      1.465520    -0.940888    0.292633    0.351737
            73    0      11.099600      4.534740      3.006730    -0.164307   -0.344576    1.139919
            74    0      11.030900      6.431900      9.170870    -0.905953    0.802627    0.437805
            75    1      11.074900      4.709230      7.645060     0.122618   -1.642392   -0.650021
            76    1      11.080800      6.356950      4.619350    -0.307396   -0.747677    0.935449
            77    1      10.808800      4.699290     10.735500     1.297725   -0.945977    0.412029
            78    1      11.004100      6.336440      1.534750     0.665843    0.501765   -0.500958
            79    0       0.013163      7.171840      3.143940     0.809015    1.183762   -0.909882
            80    0      -0.057155      9.077850      9.151940    -1.423394    0.651412    0.021081
            81    1      -0.027797      7.158910      7.637540     0.360363    1.101202   -0.315617
            82    1       0.063686      9.050580      4.689580     0.144839    0.253845   -0.424255
            83    1      -0.071107      7.373370     10.740200     0.195952   -0.988188    0.681865
            84    1       0.098178      9.030530      1.600330     0.235074   -0.145818   -0.703942
            85    0      11.166300      9.925600      3.055940    -0.750756    0.841661    0.807909
            86    0      11.093200      1.027040      9.218170    -1.859652   -1.641906   -0.172177
            87    1      11.016900     10.081700      7.546610     0.441281   -0.176176    0.778653
            88    1      11.038000      0.826985      4.671160     0.553194    0.605785   -0.518190
            89    1      10.938400      9.953900     10.801100     0.692318    0.493619   -1.256930
            90    1      11.019800      0.913937      1.549120     0.330957   -0.194710   -0.323393
            91    0      -0.095752      1.943340      3.060400     1.456301   -1.868245   -0.256659
            92    0      -0.046602      3.734960      9.306580    -0.992115   -0.575608   -0.747446
            93    1      -0.062643      1.859750      7.624900    -0.266267    0.979912   -0.149120
            94    1       0.021419      3.708960      4.627920     0.165401    0.063573   -0.200323
            95    1      -0.056310      1.864020     10.820100    -0.156274    0.340249    0.384924
            96    1       0.037735      3.722550      1.414060    -0.192752   -0.505338    0.107882
 Energy
     -80522.067482651066
 PlusStress:  xx          yy          zz          yz          xz          xy
         5.10368    17.66470     8.30401    -6.57037    -4.77190     2.50314
END_CFG

BEGIN_CFG
 Size
    96
 Supercell
        12.630008      0.000000      0.000000
         0.000000     10.924001      0.000000
         0.000000      0.000000     12.407714
 AtomData:  id type       cartes_x      cartes_y      cartes_z           fx          fy          fz
             1    0       1.547530      4.561020      3.071120     0.579506   -0.045285    0.951654
             2    0       1.558890      6.387080      9.163160    -0.060397    0.644208    0.589822
             3    1       1.660220      4.610900      7.672910    -1.346437   -1.053231   -0.708922
             4    1       1.574730      6.375590      4.700320    -0.418975   -0.332776   -0.250370
             5    1       1.593220      4.600080     10.857800    -0.521855   -0.376898   -0.962701
             6    1       1.634710      6.345480      1.387880    -0.441868   -0.184891    0.862263
             7    0       3.104260      7.205410      3.103890     0.672160    0.923683   -0.290005
             8    0       3.173910      9.115460      9.148270     1.392582    0.039479    0.865687
             9    1       3.212170      7.205060      7.541860    -0.584496    0.773579    0.575524
            10    1       3.279830      9.096560      4.685650    -0.950508   -0.690123   -0.285042
            11    1       3.134130      7.304740     10.737800    -0.122661    0.180443    0.011036
            12    1       3.081980      9.009350      1.500390     0.583387   -0.029124   -0.367160
            13    0       1.628020      9.936410      3.085320    -0.821749    0.491876   -0.495587
            14    0       1.668110      0.957740      9.168620    -1.550002    0.009912    1.033245
            15    1       1.591430     10.065200      7.754810    -0.076167   -0.294056   -2.143004
            16    1       1.657430      0.814641      4.638040    -0.475036    0.397863    0.399398
            17    1       1.647220     10.069500     10.860900    -0.054547   -0.271427   -1.163942
            18    1       1.607830      0.903411      1.583950    -0.725277   -0.625032   -1.033783
            19    0       3.175160      1.805080      3.021090     0.152835   -0.912067    0.672278
            20    0       3.111680      3.659250      9.210290     1.295783   -0.525582    1.595831
            21    1       3.341840      1.826380      7.622550    -1.464594    0.673464   -0.425015
            22    1       3.194440      3.525110      4.608590    -0.537524    0.766188    0.732093
            23    1       3.138290      1.770650     10.823300     0.658679    0.775548   -0.535407
            24    1       3.096780      3.647990      1.563840     0.462533   -0.098812   -1.480231
            25    0       4.717120      4.480050      3.075650    -0.108155    0.702113   -1.217356
            26    0       4.704540      6.338630      9.198440    -0.436473    0.964593    1.001335
            27    1       4.744410      4.517000      7.702960     0.089761   -0.007561   -0.972131
            28    1       4.709470      6.249850      4.595500     0.193854    0.825783    1.135048
            29    1       4.755620      4.622540     10.821100    -0.533069   -0.399818    0.102256
            30    1       4.714680      6.350800      1.572550    -0.006701   -0.122201   -0.810404
            31    0       6.309520      7.273030      3.086380     0.103812   -1.110375   -0.384642
            32    0       6.329660      9.180690      9.175630    -0.405538   -1.161172   -0.493642
            33    1       6.201590      7.232500      7.686250     1.445939    0.656794   -0.501029
            34    1       6.317340      9.075630      4.620970     0.201583    0.471893   -0.288881
            35    1       6.195970      7.350200     10.842200     0.694156   -0.160873   -0.710519
            36    1       6.288800      8.990580      1.498370    -0.365808    0.350362   -1.430118
            37    0       4.727140      9.964670      3.012480     0.095737   -0.656761    0.180787
            38    0       4.852050      1.017010      9.172700    -0.453055   -1.115490    1.109023
            39    1       4.793520     10.088100      7.499150    -0.254766   -0.125153    1.237147
            40    1       4.656830      0.797425      4.582020     0.964779    0.880718    0.445548
            41    1       4.910040     10.071800     10.749600    -1.798393    0.464063    0.096449
            42    1       4.755740      0.819070      1.470460     0.152418    0.824987   -0.134145
            43    0       6.338240      1.801350      3.087950    -1.315296    0.148512   -2.150145
            44    0       6.367030      3.764730      9.261790    -0.289301   -0.750930   -0.539349
            45    1       6.450450      1.957610      7.669550    -0.220060    0.256878   -0.326654
            46    1       6.362820      3.683660      4.474260     0.003005   -0.715154    2.419191
            47    1       6.212890      2.035990     10.890400     0.803779   -0.868273   -0.397885
            48    1       6.298230      3.728560      1.437810    -0.231485   -1.058326   -0.071787
            49    0       7.893940      4.562990      2.984340     1.074796    0.372442    0.221342
            50    0       7.852760      6.393170      9.285870     0.158041    0.522786   -0.235638
            51    1       8.095260      4.632670      7.714570    -1.277282   -0.337216   -0.269950
            52    1       7.947510      6.396800      4.575010    -0.476651   -0.553346    0.591090
            53    1       7.889850      4.501990     10.875600     0.420732    0.953769    0.206662
            54    1       7.871930      6.365020      1.402520     0.064810    0.319423    0.445217
            55    0       9.474090      7.215360      3.007360     0.603472    1.513176   -0.958147
            56    0       9.470720      9.121110      9.227190    -1.657914   -0.189047    0.450153
            57    1       9.427860      7.196260      7.536830    -0.821037    1.221026    0.702536
            58    1       9.395350      9.059740      4.617880     0.317801    0.213939   -1.244535
            59    1       9.367380      7.331700     10.877800     0.625956    0.186737   -0.765052
            60    1       9.507740      9.295350      1.331200    -0.118379   -1.193162    0.507786
            61    0       7.848910      9.976870      2.895920     0.990681    1.120390    2.200225
            62    0       7.929400      1.128960      9.323470    -0.264239   -1.680778   -0.246133
            63    1       7.845470     10.174100      7.662080     0.918460   -0.056066    0.360954
            64    1       7.921670      0.948145      4.517650     0.022840   -1.177160    1.124490
            65    1       7.768110     10.089000     10.817300     1.312645    0.282339   -0.290151
            66    1       7.854220      0.986010      1.414920     0.282547   -0.374652    0.174237
            67    0       9.471550      1.865930      3.035000     0.357842   -0.034005   -1.335277
            68    0       9.545890      3.707310      9.330480     0.023718   -0.173245   -1.179500
            69    1       9.561700      1.828680      7.646340    -0.761216    0.741031    0.583239
            70    1       9.547550      3.658100      4.625750    -0.768255    0.096724   -0.402371
            71    1       9.534090      1.942850     10.888400     0.156592   -0.747956   -0.033602
            72    1       9.435100      3.662270      1.394770     0.455814   -0.008764    0.248635
            73    0      11.038100      4.564550      2.994130     0.767773   -1.567637   -0.063614
            74    0      10.951400      6.494500      9.146230     1.761614   -1.000372    1.296183
            75    1      11.087000      4.614920      7.665740    -0.108508   -0.400091    0.108259
            76    1      10.999500      6.245940      4.580550     0.472815    1.200087    0.431374
            77    1      11.097400      4.705950     10.816100    -0.030671   -0.181007    0.050932
            78    1      11.146400      6.353600      1.417840    -0.915020   -0.204059   -0.225713
            79    0       0.018478      7.183970      3.015830    -0.108563    0.467806    0.017970
            80    0       0.019968      9.126650      9.204360    -0.422709    0.313822    0.351329
            81    1       0.001373      7.360920      7.533840    -0.126202   -0.322062    0.916457
            82    1      -0.069426      9.049720      4.447650     0.596441   -0.123568    2.037858
            83    1      -0.024457      7.341750     10.751900    -0.065287   -0.340033   -0.184616
            84    1      -0.105577      9.044300      1.473310     1.307622    0.112026   -0.406526
            85    0      11.060400     10.052500      3.005420    -1.605133    0.411875   -0.085933
            86    0      11.069500      0.907730      9.212390    -0.966622   -0.285166    0.266122
            87    1      10.939600      9.908580      7.636210     1.242033    0.939592   -0.249965
            88    1      10.974800      0.947202      4.636050     0.472033   -0.530449    0.110540
            89    1      11.064000     10.065000     10.772200    -0.083521   -0.528133    0.351229
            90    1      11.128500      1.040990      1.432880    -0.360132   -0.546487    0.750875
            91    0       0.014611      1.811090      3.153340     0.224403   -0.043933   -0.298050
            92    0      -0.070192      3.567150      9.256900     1.547696    2.215257   -0.837534
            93    1      -0.102689      1.755110      7.589260     1.321538    0.665219    0.218005
            94    1       0.043098      3.659170      4.728750    -0.534079    0.042497   -0.818820
            95    1      -0.038728      1.807280     10.776800     0.866960   -0.288629    0.370214