BEGIN_CFG
Size
96
Supercell
12.777542305437025	0.0	0.0
0.0	10.886644065974316	0.0
0.0	0.0	12.35824595400971
AtomData:	id	type	cartes_x	cartes_y	cartes_z	fx	fy	fz
1	0	1.55167000000000010473	4.59396999999999966491	3.05313999999999996504	-1.12419807551442008098	-0.60351113079841001152	-0.24387472495046000343	
2	0	1.63881000000000009997	6.37750000000000039080	9.19344000000000072248	-0.33452290135326001597	0.09929926552034999687	-0.19684761664966998751	
3	1	1.64833999999999991637	4.45284999999999975273	7.65658999999999956287	-0.95346229139976002021	0.86197327004558998986	-0.22283440631941001109	
4	1	1.45591000000000003745	6.40658999999999956287	4.53451000000000004064	0.59282436435643004469	0.00307878684070999990	1.27894952190921995516	
5	1	1.58969000000000004746	4.57380000000000030980	10.73620000000000018758	0.21872127380319000833	-0.25934191009168999775	0.49580978261498998005	
6	1	1.48843999999999998529	6.35327999999999981640	1.44713000000000002743	0.11006322081078000197	0.31781463428179002051	-0.09487469157592999525	
7	0	3.07141999999999981696	7.29204000000000007731	3.02348999999999978883	0.37610606849898997606	0.84342236431548001097	-0.63860316498511005001	
8	0	3.19016000000000010672	9.05645999999999951058	9.15257000000000076056	-0.55082925501804003154	0.47602603743735000252	1.21314390685989992313	
9	1	3.17350999999999983103	7.27385000000000037090	7.58084000000000024500	0.18747877532227000263	-0.35336893293551002726	0.00629912601899000005	
10	1	2.96537000000000006139	9.09258999999999950603	4.70500000000000007105	0.53862737066629995386	0.07588451768723999957	-1.16359578105091010514	
11	1	3.25077999999999978087	7.37171999999999982833	10.79609999999999914166	-0.29014883431907001476	-1.21053717917780989666	-0.26854239208662999960	
12	1	3.08047000000000004150	9.20692000000000021487	1.49957999999999991303	-0.37830837818784002202	-0.81383877569619000880	0.12306932951174999469	
13	0	1.41013999999999994905	10.02439999999999997726	3.07012000000000018218	0.75712583673283995189	0.15148529011153999413	0.15203622508670000535	
14	0	1.62345000000000005969	0.90672699999999994969	9.22338000000000057810	-0.42903317849608002543	0.36028799285978002631	0.77898928326867999949	
15	1	1.53065000000000006608	9.98525000000000062528	7.71070000000000010942	0.44323132595405001499	0.15360881655530000955	-1.05378568166675989914	
16	1	1.43656000000000005912	0.94808400000000003782	4.67705999999999999517	0.26466373116857000447	-0.18124124645987998994	-0.49928475453260001693	
17	1	1.67822000000000004505	9.97085000000000043485	10.85619999999999940599	-0.35563160527715997894	0.19625770591618998950	-0.60029922515300004893	
18	1	1.49276000000000008683	0.95994800000000002349	1.45056000000000007155	-0.17465589233959999405	-0.34175556418317998286	0.17796335626272999364	
19	0	3.07032999999999978158	1.82708000000000003737	3.05342000000000002302	-0.19734180459504999106	0.17207545114100000760	1.03126441898404008768	
20	0	3.20501000000000013657	3.61837000000000008626	9.19896999999999920306	-0.92387525666996994644	-0.84920818414159005005	0.92991791848875005044	
21	1	3.14726999999999978996	1.77854000000000000981	7.59318999999999988404	-0.02950569459599999833	0.41314155573582000969	-0.06527183751131999945	
22	1	3.06484999999999985221	3.73399999999999998579	4.67180000000000017479	0.67482037079151002690	-0.59736835869960003276	-0.31924487141548002489	
23	1	3.18290000000000006253	1.81258000000000008001	10.84379999999999988347	0.25573086146344997660	0.04666158069294999711	-0.81359590437006001906	
24	1	3.12534000000000000696	3.63628000000000017877	1.54754999999999998117	0.14615554004261999133	0.37730707264417001623	-0.78281414110795000116	
25	0	4.72644999999999981810	4.58480000000000043059	3.07222999999999979437	-0.25804861509907001116	-0.05543264948979999968	0.11075373625024000079	
26	0	4.79713999999999973767	6.36793999999999993378	9.18692000000000064119	-0.51536436778559002736	1.20184685846937000520	0.48176439432674000862	
27	1	4.68473999999999968225	4.58948000000000000398	7.71910999999999969390	0.95297172513721994935	-0.39713378733493998052	-2.07438541618106997433	
28	1	4.68437999999999998835	6.46619000000000010431	4.54800999999999966406	0.31803710422036002292	-0.48645761524053998670	0.52925958450110999198	
29	1	4.78214000000000005741	4.53603000000000022851	10.69969999999999998863	0.24270828104582001239	0.15577028693208999632	1.06832521580305006559	
30	1	4.82305000000000028137	6.38438999999999978741	1.42884999999999995346	-0.71822913416518996410	-0.00605325316492999997	0.57052446172505999478	
31	0	6.38093999999999983430	7.30196999999999984965	3.04305000000000003268	-1.30421094016832994633	-0.02140522828668999997	-0.02791161897157999963	
32	0	6.37312000000000011823	9.08843000000000067473	9.19003999999999976467	0.31507135981780998168	0.05156447467599999807	-0.61499354038152997948	
33	1	6.38056999999999963080	7.25868999999999964245	7.60193000000000029814	0.22675517557770999422	-0.05640837245101999742	0.24826316083330998707	
34	1	6.19601999999999986102	9.03110000000000034959	4.68506000000000000227	0.67634537247241999225	0.73033408764050999906	-0.73902630805125002489	
35	1	6.42182999999999992724	7.30497999999999958476	10.71610000000000084697	-0.34807151034659000732	-0.44722291252406998208	0.82797842878102001496	
36	1	6.25253000000000014325	9.09558999999999961972	1.41968999999999989647	0.02227483515752999924	0.00292513219588000015	0.53501434256569002645	
37	0	4.67905999999999977490	10.03930000000000077875	3.05203999999999986414	-0.49709587965704998824	-1.45940701285635010542	0.60914563136619004347	
38	0	4.72836000000000034049	0.92212899999999997647	9.13364999999999938041	0.21631459975785000127	-0.44981197701559000324	1.45119606897476005614	
39	1	4.70709999999999961773	9.93857000000000034845	7.62940000000000040359	0.87057634363650004961	0.43044116622866002153	-0.71361777523642000443	
40	1	4.64785000000000003695	0.89681400000000000006	4.62042999999999981497	0.32697157969972001634	0.62431356623517997306	0.17967044227407999446	
41	1	4.75037000000000020350	9.96391999999999988802	10.75799999999999911893	0.26899011081889001584	0.38802086642063998712	-0.36513094110501997935	
42	1	4.61552999999999968850	0.89532400000000000873	1.46534000000000008690	0.63796426862287003434	0.62781290492682995108	-0.00794835484274999948	
43	0	6.28352000000000021629	1.80695000000000005613	3.04226000000000018630	-0.28836543013130999658	-0.04942674308071000333	-0.06747004198561000476	
44	0	6.37087999999999965439	3.65098000000000011411	9.14117000000000068383	-0.68678299546796994779	-0.71699156266141994553	0.25728189295733999709	
45	1	6.31008000000000013330	1.83695999999999992625	7.60233999999999987551	0.24153843061825000516	-0.29343648057218002512	-0.59398901756910005290	
46	1	6.34949999999999992184	3.66525999999999996248	4.60358999999999962682	-0.27297207215593999319	-0.12190086139318999370	0.31265232934393999420	
47	1	6.33736000000000032628	1.80445999999999995289	10.73859999999999992326	-0.08712570358606999688	0.05417593760338999809	-0.39109948633906999049	
48	1	6.28927999999999975955	3.66114000000000006096	1.54736999999999991218	0.68616928806498000970	0.12221124707823000088	-0.46867930509127997407	
49	0	7.98885000000000022879	4.58976999999999968338	3.10096000000000016072	-0.97542250059958002240	0.06020149900970000328	-0.25689813749127998754	
50	0	7.97412000000000009692	6.32523999999999997357	9.21848999999999918487	-0.05769494569628000336	0.47976528083781999623	-0.69819789296581002969	
51	1	7.93147999999999964160	4.52695000000000025153	7.56991999999999976012	0.57775696363579998049	0.18983421515234999433	0.28303334057874002250	
52	1	7.93243000000000009209	6.43878000000000039194	4.68966999999999956117	0.01787239600545999924	-0.24555744312351998615	-0.22832914284996000398	
53	1	7.90807000000000037687	4.44414999999999960067	10.70989999999999930935	0.57383151657773001642	0.73278455219506000162	0.88220024610173997104	
54	1	7.99612000000000033850	6.42743000000000019867	1.52526000000000006018	-0.12006897561667000118	-0.45129329997916001194	-0.14740335160761999789	
55	0	9.50750999999999990564	7.37692999999999976524	3.12747000000000019426	0.24962961021287000118	-0.84769336771002001818	-0.92405505483386995991	
56	0	9.64663999999999965951	9.11693999999999959982	9.21339000000000041268	-0.82298520308798994716	0.11377827220594000091	-0.31977282716995997225	
57	1	9.60130999999999978911	7.21370000000000022311	7.69920999999999988717	-0.08730217739694000334	0.42088054726327001065	-0.35179649707838001049	
58	1	9.43338999999999927581	9.19378999999999990678	4.60247000000000028308	0.46592745934298002153	0.24710977951724000246	0.23330095242966000790	
59	1	9.52230999999999916383	7.37999000000000027200	10.78739999999999987779	0.29541825407386002045	-1.03327364318080006100	0.37625408168143997800	
60	1	9.42678000000000082537	9.05325999999999986301	1.37887000000000004007	0.28653834328858002189	0.58156056197450001211	0.78183882296486995056	
61	0	7.84778999999999982151	9.95228000000000001535	3.02041000000000003922	-0.15703110967455000124	0.59969079364727995163	-0.13377981875568001335	
62	0	7.91755000000000030980	0.88119700000000000806	9.13927999999999940428	0.44737991493387002651	0.90423045184714001543	-0.42081936728218999333	
63	1	8.04892000000000074067	9.91211000000000019838	7.60930000000000017479	-0.47962691605716001320	0.29545352573179001210	-0.04020149110572000112	
64	1	7.87167999999999956628	0.87758400000000003072	4.58337000000000038824	-0.46883852216101001842	0.09650205091718999650	0.51458488470871999176	
65	1	7.96537000000000006139	10.06140000000000078728	10.74639999999999950830	0.02797406003217000128	-0.75675460507471004057	0.08032309783310999374	
66	1	7.89121999999999967912	0.86315600000000003433	1.43575999999999992518	-0.22069536532539998919	0.69324234748494995006	0.61083794290270998495	
67	0	9.42417000000000015802	1.89399999999999990585	3.11785999999999985377	1.23526966964595996679	-0.64246280635523000946	-1.23176630811574994162	
68	0	9.57019999999999981810	3.63668000000000013472	9.19562999999999952649	-0.47157163657048001282	-0.06715436219254000694	-0.09297603613603999673	
69	1	9.58630999999999922068	1.84719000000000010964	7.59672000000000036124	-0.35043087397562999730	-0.31475631990811997474	0.26899169018635998851	
70	1	9.51727999999999951797	3.65571000000000001506	4.72252000000000027313	-0.02133154704136000154	0.50346811659190005006	-0.35096935768853998461	
71	1	9.45073999999999969646	1.78608999999999995545	10.72630000000000016769	0.46543622212835999985	0.31454139470992997785	0.27906126895346000660	
72	1	9.54138000000000019440	3.66654999999999997584	1.49531999999999998252	-0.53008323568685000726	0.30182019774963997349	0.08530332553541999929	
73	0	11.03170000000000072760	4.65965999999999969106	3.07320999999999999730	0.85325525845539995640	-0.90753678618360000829	1.29877197304497005170	
74	0	11.14380000000000059401	6.35794000000000014694	9.27887999999999912859	0.63124478516978999032	0.14655642431828000416	-0.73047439223140997466	
75	1	11.19379999999999952820	4.49035999999999990706	7.66012999999999966150	-0.13846385790454998621	0.82255978387374995009	-0.00901495938862000024	
76	1	11.10890000000000021885	6.55419999999999980389	4.73648000000000024556	-0.30961402845871999201	-1.10110012644823007655	-0.49002460352840998548	
77	1	11.14419999999999966178	4.58708000000000026830	10.84689999999999976410	-0.13842338840870999084	-0.67349417079241002959	-0.18358169799231000008	
78	1	11.07719999999999949125	6.42931999999999970186	1.49916000000000004810	-0.37189215626885002708	0.01385556079031999982	-0.08959171976690999406	
79	0	-0.13477100000000000191	7.27324999999999999289	3.05959000000000003183	0.13538193293142999907	0.45398047300423000072	-0.46542806291263999485	
80	0	0.01208260000000000063	9.16200000000000081002	9.27838000000000029388	-0.57370069344327001559	-0.65335573629878995749	0.23024364106410000197	
81	1	-0.04125070000000000126	7.38201999999999980417	7.69545000000000012363	0.16313975275042000290	-0.90294245584331001009	0.05622286987197999686	
82	1	-0.27899099999999998900	9.12710000000000043485	4.56280000000000018900	0.80408421207292002375	0.25370530855720002661	0.33212241724278002142	
83	1	0.04619820000000000176	7.24488999999999983004	10.76120000000000054285	-0.19553587641292000110	0.37256194990419999602	0.44860195218906001591	
84	1	-0.13169800000000000950	9.06348999999999982435	1.51618999999999992667	-0.00617554237340999998	0.50260986127887996577	-0.87375415258019994980	
85	0	11.02169999999999916440	10.08179999999999942872	2.95045000000000001705	-0.76314529078813997387	-0.49859884067698001520	0.74433426368535005047	
86	0	11.13659999999999961062	0.93257100000000003881	9.22813000000000016598	0.41098123803781999586	0.19504841756398999530	-0.30169966311948998028	
87	1	11.21829999999999927240	10.04930000000000056559	7.60355999999999987438	-0.03034436860906999933	-0.20807978418313000102	0.61755340310270001591	
88	1	11.05300000000000082423	0.98397900000000004805	4.65125999999999972800	0.03813719679523999706	-0.30155651310810999144	-0.62336275486591996575	
89	1	11.18500000000000049738	10.06889999999999929514	10.82249999999999978684	-0.05181703000999000192	-0.31419119205244999682	0.21736060158389999830	
90	1	11.03459999999999929798	1.05532000000000003581	1.43952999999999997627	-0.14994116564915999090	-0.30106213261484998656	0.20854711451381999221	
91	0	-0.09886240000000000305	1.79459999999999997300	3.02970000000000005969	-0.42072114281472000608	1.28912576241205001359	0.71288466450072995872	
92	0	-0.04172340000000000076	3.61906999999999978712	9.23893999999999948614	0.70094264087477997638	1.09641767262853995213	0.11191874283055999739	
93	1	-0.01552910000000000054	1.85017999999999993577	7.69716000000000022396	0.03366241660113999945	-0.51000503720595002921	-0.46896936176756998105	
94	1	-0.04681930000000000119	3.66364000000000000767	4.61172999999999966292	-0.46741755996549000374	0.10979970128631999504	-0.27536797762184000993	
95	1	0.01330289999999999945	1.84396000000000004349	10.77800000000000046896	-0.30820115687650001535	-0.42831097843822002469	0.39787017389790002575	
96	1	-0.15027099999999998792	3.67919999999999980389	1.55394999999999994245	0.42415502537722998833	0.20161396697986999627	-0.40547840212629998602	
Energy
-80524.30700504410197027028
PlusStress:	xx	yy	zz	yz	xz	xy
-15.91025037032192201991	14.13023871513217244456	8.70302282320481701561	-8.93239035373403211793	3.72610531790208421299	0.16820599377939696173
END_CFG

BEGIN_CFG
Size
96
Supercell
12.601253133128735	0.0	0.0
0.0	10.960663730193637	0.0
0.0	0.0	12.190747292757951
AtomData:	id	type	cartes_x	cartes_y	cartes_z	fx	fy	fz
1	0	1.62955999999999989747	4.55809999999999959641	3.08085999999999993193	-0.47703195296947997761	-0.26393079147991999056	0.14286300366973000986	
2	0	1.61582000000000003403	6.39405999999999963279	9.17019999999999946283	-0.85222666419450998632	1.09768512352342995086	-0.35313718377880998212	
3	1	1.65545000000000008811	4.52296999999999993491	7.61734000000000044395	-0.39484386546787997307	0.57180671671682004042	-0.12185041686906999958	
4	1	1.62077000000000004398	6.38011000000000016996	4.68210999999999977206	-0.16654134907619999595	-0.23056829953333998762	-0.43508381659868000657	
5	1	1.63007999999999997343	4.66406000000000009464	10.75839999999999996305	-0.14312895682769999350	-0.40563175943592000294	0.34739157861317998544	
6	1	1.59119000000000010431	6.37089999999999978542	1.44361000000000005983	0.00744656398467999966	-0.25160455733177000681	0.36797646061879002444	
7	0	3.14428000000000018588	7.28775999999999957168	3.03395999999999999019	0.15520232554731000496	0.18366959034510998983	0.70602616043159005521	
8	0	3.10102000000000010971	9.17256000000000071282	9.20219999999999949125	0.86203807014861999480	-0.03319080348633000194	-0.23527754205793000031	
9	1	3.11077000000000003510	7.38963999999999998636	7.62549999999999972289	0.13260291197221998893	-0.34103408039952998188	-0.71064160715435997773	
10	1	3.17600000000000015632	9.12928999999999923887	4.64512000000000035982	0.27551277930584999742	-0.38857576044044001007	-0.06839755634496999526	
11	1	3.18639999999999989910	7.40120999999999984453	10.73900000000000076739	-0.29352923602374997314	-0.88389010444826998647	0.26892271564106001724	
12	1	3.13311999999999990507	9.15698000000000078558	1.51286000000000009358	0.38537168425126999693	-0.41607387179136001709	-0.44209016529307998411	
13	0	1.63121999999999989228	10.06129999999999924398	3.10029000000000021231	-0.28413274623930001583	-0.63098625434880994955	0.33643336920124999878	
14	0	1.56857000000000001982	0.98062599999999999767	9.26199000000000083332	-0.08943984149321999866	-0.21075703508813001252	0.10197365692986999630	
15	1	1.57677000000000000490	10.14320000000000021600	7.69374999999999964473	-0.54307566639426996247	-0.27179750032612998156	-0.59345275955154996872	
16	1	1.69236000000000008647	0.86052099999999998037	4.77118000000000019867	-0.62904497785222002193	0.56162622126988004378	-1.19057108856890003779	
17	1	1.60678000000000009706	10.08409999999999939746	10.80869999999999997442	-0.72513689050056995278	-0.09840231873240999627	0.04237896271055999892	
18	1	1.64466000000000001080	0.82849399999999995270	1.50849000000000010857	-0.57892743968255999665	0.66496880891290999216	-0.39138663198751999506	
19	0	3.13789000000000006807	1.83582000000000000739	3.04443000000000019156	1.08596921717839989263	-0.27590758697932998844	0.34224863088587997861	
20	0	3.20216000000000011738	3.72788999999999992596	9.22045999999999921215	-0.29422491228606001412	-1.33851499306963006575	0.45436387780914000434	
21	1	3.13926999999999978286	1.81702000000000007951	7.64742000000000032855	-0.06526440185725000676	0.55830949199432999830	0.26031398086569002004	
22	1	3.26795999999999997598	3.71233000000000012975	4.64146999999999998465	-0.62945841328124996217	-0.59220202683459000070	-0.30050680524160999774	
23	1	3.08848000000000011411	1.87308999999999992170	10.83440000000000047464	0.94531473788997999463	0.24683330377773998743	-0.26859086922003000408	
24	1	3.21411999999999986599	3.68327999999999988745	1.47565999999999997172	-0.51733918090435004888	-0.22066903227046000269	-0.14275322519927000076	
25	0	4.75710999999999994969	4.60665000000000013358	3.00830000000000019611	0.78342008089948000915	-1.48064041326494999495	0.76784791292802001550	
26	0	4.70000000000000017764	6.43097000000000029729	9.12274000000000029331	0.94948393182241996868	-0.06125116451985000016	0.88421238398390999969	
27	1	4.73442999999999969418	4.52981000000000033623	7.59966000000000008185	0.23435233003642000349	0.57145123583275003742	0.11225615590932000454	
28	1	4.71131999999999973028	6.33727000000000018076	4.63234999999999974563	-0.19009895032811000015	0.33394533526601999363	0.38350173818735999731	
29	1	4.77170999999999967400	4.65779999999999994031	10.85130000000000016769	-0.16269639041448000216	-0.23424757252604999636	-1.06839919762781998536	
30	1	4.79253000000000017877	6.41835000000000022169	1.52198999999999995403	-0.55293077465603002185	0.14510702265017000334	-0.85584368611943995031	
31	0	6.28138000000000040757	7.25832999999999994856	3.13626000000000004775	1.38889007333289993262	0.39983485962465997732	-0.13272831052781999817	
32	0	6.30133999999999971919	9.11117999999999916838	9.15493999999999985562	-0.11015974086160000567	0.50398056711023997423	-0.08302576471889000498	
33	1	6.29375000000000017764	7.35956000000000010175	7.55738000000000020862	0.06451824930699999461	-0.63546557117460000796	0.13818559331647001232	
34	1	6.32481000000000026517	9.06654999999999944293	4.75748999999999977462	-0.10578827861605999416	0.36794821461126997475	-1.15569047494585008806	
35	1	6.31737000000000037403	7.31778999999999957282	10.74830000000000040927	-0.69884494010525000096	0.02782478513004000079	0.10372964914741999998	
36	1	6.30473000000000016740	9.05443999999999959982	1.49860999999999999766	0.01005844838491999974	-0.17710938840730999777	-0.28124127333013998475	
37	0	4.77648999999999990251	9.97846000000000010743	3.04584000000000010289	-0.50807400609782005230	0.22005884265594000126	0.60914745039434003981	
38	0	4.70106999999999963791	0.92574299999999998256	9.22146000000000043428	-0.30681019042625001791	-0.26747903519375998416	0.07789247053405999599	
39	1	4.66007999999999977803	10.03880000000000016769	7.60709000000000035158	0.35647714452957002251	0.35271053109486000254	0.09627231049732999646	
40	1	4.69420999999999999375	0.84942499999999998561	4.56777999999999995140	0.81877574273709996522	0.54395715776652997508	-0.11423323410241000009	
41	1	4.74826000000000014722	9.98877000000000059288	10.69640000000000057412	-0.16725825536788999082	0.49292113616520999431	0.87056276671855004068	
42	1	4.76923000000000030241	0.83743699999999998695	1.42172000000000009479	-0.41804195428667001444	0.26677212967836000379	0.34945720540336000504	
43	0	6.34809000000000001052	1.79943999999999992845	2.94580000000000019611	-0.62138018362249003435	-0.74741932144417999595	1.46700965913779990402	
44	0	6.29511999999999982691	3.62487000000000003652	9.20848999999999939803	-0.64243975738184999624	0.81268582975675995872	-0.18912681966791999866	
45	1	6.15578999999999965098	1.87704000000000004178	7.61467999999999989313	1.04819014477538008379	-0.49839399570712000775	-0.07627607016043000399	
46	1	6.33377999999999996561	3.52457000000000020279	4.57472000000000011966	-0.10956126205407999696	0.67755374517829003445	0.06823360339320000412	
47	1	6.28002000000000037971	1.77648999999999990251	10.79279999999999972715	-0.09217629714746000680	0.53271831234070998740	0.19296716420318998919	
48	1	6.34400999999999992696	3.62320999999999981966	1.44301999999999996938	0.20138210093558001068	0.43043798112094000530	-0.06054032116993000173	
49	0	7.94526999999999983260	4.49268999999999962824	3.08330999999999999517	-0.76098324623945001743	0.53112572327982998655	-0.18026819536793001197	
50	0	7.83223000000000002530	6.42229999999999989768	9.21681000000000061334	0.70401219254005997783	-0.28300855091032001143	-1.75139012849579001063	
51	1	7.89852000000000042945	4.56921999999999961517	7.60015999999999980474	-0.25092592809890001959	0.08294363134826999995	0.40379290793523997527	
52	1	7.90498999999999973909	6.30475999999999991985	4.73160000000000025011	-0.03885861561935000097	0.02442615280549999962	-0.97034347328347003714	
53	1	7.82071999999999967201	4.57964999999999999858	10.70400000000000062528	0.78280514711711002285	0.07453274099668000252	0.96278231537200997803	
54	1	7.87253000000000024983	6.36605000000000043059	1.47963000000000000078	-0.13381144619051998923	-0.43655606877609998140	0.51654129568794004967	
55	0	9.45752000000000059288	7.21093000000000028393	3.03635000000000010445	0.11664958120085999749	0.11662798640601000633	0.58293381683090994549	
56	0	9.45039000000000051216	9.21847999999999956344	9.13732000000000077478	-0.42657980605056999845	-0.32719989703648000301	-0.47293418090155997513	
57	1	9.50838000000000072021	7.29452000000000033708	7.66084000000000031605	-0.57111485375820003618	0.35530769097279002455	-0.40560283121390999783	
58	1	9.45805999999999968963	9.03655000000000008242	4.57927000000000017366	-0.29606719955484001039	0.17986245048216001341	0.30119901130392001676	
59	1	9.44440999999999952763	7.39550000000000018474	10.68260000000000076170	0.17299771490381998795	-0.42391197304949002067	0.68509331706153997477	
60	1	9.50003000000000064063	9.02623999999999959698	1.43155999999999994365	-0.26689647361294999151	0.37119759846527999869	0.80920244463732005080	
61	0	7.83208999999999999631	10.00169999999999959073	3.02043999999999979167	1.46352367506905989281	-0.42179991045808001848	0.78962257456421003354	
62	0	7.83120999999999956032	0.98450999999999999623	9.19513000000000069178	0.13710205279375001219	-1.23481886443811994525	-0.17096985034709999418	
63	1	7.78751999999999977575	10.11449999999999960210	7.57873000000000018872	0.67732697191240998080	0.13876504100257999741	0.25490025214394002040	
64	1	7.90233999999999969788	0.87083800000000000097	4.60655999999999998806	-0.43230771495568998120	-0.04593646414498000347	-0.02986064763395999966	
65	1	7.85571999999999981412	9.97071000000000040586	10.80129999999999945715	0.08916712827853999490	0.97711897436355998892	-0.83353980648615999538	
66	1	7.98073999999999994515	0.90477499999999999591	1.49625999999999992340	-0.35932176493369999415	-0.42377149527842999932	-0.67171181256901002499	
67	0	9.50430000000000063665	1.77818000000000009386	3.09674000000000004817	-0.05513917729413000263	-0.30909909755248998753	-0.23021709539064999506	
68	0	9.49160999999999965837	3.70943999999999984851	9.19744999999999990337	-0.33492606142334002683	-0.33068318753858999548	-0.28756263515718999413	
69	1	9.46130999999999922068	1.86607999999999996099	7.63288000000000010914	0.05971436010583999754	0.06151097172078000275	0.35720772186347998778	
70	1	9.53353000000000072589	3.55652999999999996916	4.64304000000000005599	-0.08924434251816000530	0.50595455207488004845	0.12438524433773999467	
71	1	9.43111000000000032628	1.88585000000000002629	10.78599999999999958789	-0.01800092580406000009	0.02409694218817000008	-0.02383148059947999900	
72	1	9.48869000000000006878	3.61412000000000022126	1.50224000000000001975	0.13709534635774001110	-0.29170110625177997354	-0.35506009625440998478	
73	0	11.07980000000000053717	4.49671999999999982833	3.01765999999999978698	0.08216339225671000224	-0.05169894409986999784	1.00425741764762999075	
74	0	11.06910000000000060538	6.37856000000000022965	9.20387000000000021771	-0.04314924299870000202	0.99894278948187997802	-0.72914421293521003431	
75	1	11.09520000000000017337	4.59114000000000022084	7.60702000000000033708	-0.38291152447803999959	-0.02776911531585999834	-0.04607494651343999742	
76	1	10.99290000000000055991	6.24385000000000012221	4.67119999999999979678	0.41002792927238002063	0.58423141186486005072	-0.68629307914917003774	
77	1	11.07499999999999928946	4.62218999999999979877	10.76140000000000007674	-0.36447520537187000356	-0.19661115672987000691	0.65631395599263997465	
78	1	11.05519999999999924967	6.36296999999999979281	1.45378000000000007219	-0.02424703408820000003	-0.41345720294018001306	0.16829012505690998935	
79	0	0.02675649999999999903	7.19702000000000019497	3.06923000000000012477	-0.07306811494129999973	0.71435559285701000221	0.59007727736375004124	
80	0	-0.00791047999999999925	9.11791999999999980275	9.20656999999999925421	-0.06717882268232999721	1.92434356703239006769	-0.97331520583595998453	
81	1	-0.01908899999999999833	7.36273999999999961830	7.55046000000000017138	0.33599994556925999456	-0.46894740009273999659	0.66218289646276995430	
82	1	0.05650209999999999955	9.08990999999999971237	4.62307999999999985619	0.08370637123440000105	-0.53411244794358003762	0.58570087203677001497	
83	1	0.01906439999999999871	7.37727000000000021629	10.71419999999999994600	0.21600685831110999491	-1.00106783062161008857	0.89771107394613003372	
84	1	0.05208270000000000260	9.05991999999999997328	1.55581999999999998074	0.08521050542369999758	0.08667089723654999855	-0.43171397860131999202	
85	0	11.08409999999999939746	9.94867999999999952365	3.10596000000000005414	-1.04787282166395989691	0.16009644260479000133	-0.69289931418628003534	
86	0	11.06090000000000017621	0.98160499999999994980	9.27200999999999986301	-0.50728662186571005233	0.14701851068836999104	-0.61204159949045000566	
87	1	11.05010000000000047748	10.20819999999999971863	7.57840999999999986869	0.01112050719735999983	-0.73112532437537003371	0.59433756366557999318	
88	1	11.09420000000000072760	0.82659300000000002218	4.64135000000000008669	-0.13677811267195999489	0.05780647917554999904	0.28772524041935998440	
89	1	10.96899999999999941735	10.07569999999999943441	10.71870000000000011653	0.57213679080111001785	-0.10316456932487000353	0.73731411016600001407	
90	1	10.95560000000000044906	0.75632200000000004980	1.53506999999999993456	1.27848323038568989496	0.65018501212705004377	-0.33952167976120001258	
91	0	0.05488590000000000135	1.74086000000000007404	3.07763000000000008782	0.03340456835286000070	0.38547307971398997450	0.30191777609349002010	
92	0	0.01852130000000000096	3.70420999999999978058	9.20307000000000030582	0.82011007570804994593	0.22548353724007000332	0.39879422779286000100	
93	1	0.01157090000000000028	1.88461999999999996191	7.71114999999999994884	0.01001448534958000042	-0.19016930062184000949	-0.67269503111642003912	
94	1	0.01204189999999999948	3.58565999999999984738	4.75420999999999960295	0.41743603114075999994	0.05025052888505000120	-1.61826906717412999370	
95	1	0.05540169999999999817	1.97238000000000002210	10.86890000000000000568	-0.48199451799752002223	-0.67461671535783995779	-0.31921188228710001278	
96	1	0.06227320000000000078	3.58531999999999984041	1.46158999999999994479	0.13152565290882001214	-0.11616538644436000260	0.61086515147446995844	
Energy
-80525.04788077219564002007
PlusStress:	xx	yy	zz	yz	xz	xy
8.04746800777825121997	3.46348333162008481523	1.70996021193855929354	2.07583079520390612061	-2.16210659872192367814	0.58529320150469976713
END_CFG

BEGIN_CFG
Size
96
Supercell
12.637129544153112	0.0	0.0
0.0	10.938609087069587	0.0
0.0	0.0	12.350283618398734
AtomData:	id	type	cartes_x	cartes_y	cartes_z	fx	fy	fz
1	0	1.58654000000000006132	4.50321999999999977859	3.05634000000000005670	-0.49555678020115001559	0.70111794125991999671	-0.46868561510958001159	
2	0	1.55794999999999994600	6.37378999999999962256	9.29588000000000036493	0.17622282587526999498	0.02474268330867999965	-1.34605407936387000412	
3	1	1.55288000000000003809	4.52099000000000028621	7.74852000000000007418	-0.26763550350823001045	0.25771794713890000539	-0.13851242135454000515	
4	1	1.61095000000000010409	6.44763000000000019440	4.54171999999999975728	0.05139441507779000246	-0.60956794142461001584	0.40130010964907997240	
5	1	1.52442000000000010829	4.55522999999999989029	10.86930000000000084981	0.08564672767429000466	0.15890191979974999104	0.20229028487489000843	
6	1	1.59169000000000004924	6.40810999999999975074	1.43283000000000004803	-0.42240206970518001661	-0.53489660498711000258	0.21053570734086998750	
7	0	3.18381999999999987239	7.25319000000000002615	2.94947999999999987963	0.65449237652329994575	0.86328456021393995545	1.91164557998897000068	