BEGIN_CFG
Size
96
Supercell
12.632279520636915	0.0	0.0
0.0	10.95154100554057	0.0
0.0	0.0	12.151992738725234
AtomData:	id	type	cartes_x	cartes_y	cartes_z	fx	fy	fz
1	0	1.54564999999999996838	4.52219999999999977547	3.12821999999999977859	0.80219495277454000437	1.14388348690715990763	0.26315456968320000142	
2	0	1.59448999999999996291	6.36197999999999996845	9.11650999999999989143	-0.27734360859540002631	0.09158043124365999876	0.56209363691879998814	
3	1	1.53631999999999990791	4.57615999999999978343	7.54077999999999981640	0.16813897728251001040	-0.45038570643823999662	0.21890977224204999363	
4	1	1.58706999999999998074	6.43304999999999971294	4.70024999999999959499	-0.12314332051182000360	-0.56106486925809995192	-0.17830991398699000405	
5	1	1.52549000000000001265	4.52881000000000000227	10.75290000000000034674	0.11402817722505000086	0.11350654448279999531	-0.59149530283728002367	
6	1	1.71636999999999995126	6.34984999999999999432	1.52255000000000006999	-0.89078344898968997434	0.15829814405907000063	0.46871484164913002068	
7	0	3.21724999999999994316	7.24594000000000004746	3.15589999999999992752	0.00065711458106000001	0.58971940170251002655	-0.68507353425788997114	
8	0	3.14121000000000005770	9.07794999999999951967	9.20475000000000065370	0.44247720048348998523	0.75355865534402999284	-0.42793186764215002116	
9	1	3.15004000000000017323	7.34705000000000030269	7.58190000000000008384	0.07049223008914000388	-0.38237392612360998623	-0.18831704451149999802	
10	1	3.13804999999999978400	9.13776000000000010459	4.61965999999999965553	0.46571468202989002583	-0.04121066448591999970	0.94060629594443001533	
11	1	3.17286000000000001364	7.19245000000000000995	10.77679999999999971294	-0.49314864129746999177	0.77262933826685997740	-0.30342958478590997817	
12	1	3.21117000000000007987	9.09633999999999964814	1.54671000000000002927	-0.18820596357801000487	0.00084463699270999999	0.15169689792637000569	
13	0	1.61226000000000002643	10.07959999999999922693	3.10417999999999993932	-0.38238533166508997807	0.14420790455432000443	-1.41363779590694993438	
14	0	1.61885999999999996568	0.95726299999999997503	9.14067999999999969418	-1.01948367731330002961	-0.73821456482928005105	0.14297495309398000618	
15	1	1.62210999999999994081	10.10779999999999922977	7.56289999999999995595	-0.15536947037915999070	-0.53576008662704999175	0.25894205641492001879	
16	1	1.57810000000000005826	0.95080900000000001526	4.64695999999999997954	-0.19829008419887000914	-0.01403517055485999955	0.23850255710557999311	
17	1	1.55203000000000002068	10.08409999999999939746	10.67590000000000038938	-0.08118248029605999727	-0.43340247617881000330	0.33156242629623999818	
18	1	1.62271999999999994024	0.97289000000000003254	1.46988999999999991886	-0.14237509980214999028	-0.06381398626437000121	0.91231380717855004026	
19	0	3.18495000000000016982	1.89026999999999989477	3.14211000000000018062	-0.18077837908927998911	-0.31167972819683997798	-1.05208778303899008755	
20	0	3.13409000000000004249	3.65161999999999986599	9.15107000000000070372	-0.28352906323638998876	-0.40167250050874997447	0.63320019885860001629	
21	1	3.20624999999999982236	1.78401999999999993918	7.61730000000000018190	0.24456211132030000743	0.40018242014499000314	-0.32457006470765997763	
22	1	3.15373999999999998778	3.69038999999999983714	4.71255999999999986017	0.04959520709178000253	-0.07554349662994999659	0.15933370874019001096	
23	1	3.17047999999999996490	1.81177000000000010260	10.74390000000000000568	0.18512031749392998670	0.24562966725835000403	0.02231364223899999846	
24	1	3.24237000000000019639	3.74266999999999994131	1.57970000000000010409	-0.53387494185077999376	-0.63988781491199997475	-0.18215898000990998762	
25	0	4.79211999999999971322	4.56770000000000031548	3.16062999999999982847	0.01002789644559999929	0.19845467074844000410	0.28918314118559002024	
26	0	4.71420999999999956742	6.39794000000000018247	9.15029000000000003467	-0.06013551559744000075	-1.18641162166213010032	-0.17247450080139001272	
27	1	4.69855999999999962569	4.48794999999999966178	7.61847000000000029729	0.20644148750543001025	0.70013330496839998318	-0.46166278369494001543	
28	1	4.76832000000000011397	6.39756999999999997897	4.77594999999999991758	0.02006009443508000034	-0.20496255463397999863	-0.10442163793903000424	
29	1	4.71098999999999978883	4.59820999999999990848	10.75680000000000013927	-0.23095639410363000277	-0.29539996052350997457	-0.15691406030492000001	
30	1	4.85935999999999967969	6.35796000000000027796	1.59614999999999995772	-0.94446133196356996109	0.09833874097505000689	-0.37252750427615999307	
31	0	6.28652000000000032998	7.31355999999999983885	3.16606999999999993989	1.20154690729414004302	1.07080074045870010657	0.24553123674770999108	
32	0	6.32409999999999961062	9.05494000000000021089	9.16912999999999911438	0.01521242426638000009	0.88131105475194004839	-0.75831317525654995393	
33	1	6.34114999999999984226	7.21007999999999960039	7.63884000000000007446	-0.13030780431648000817	0.61957239637395999932	-0.91016150103708004515	
34	1	6.36169999999999991047	9.29020000000000045759	4.68304000000000009152	-0.18326773069047000431	-0.97403471218279003008	-0.08321065289711999935	
35	1	6.28066000000000013159	7.24723999999999968225	10.69689999999999940883	0.44231519566756999362	0.14612531312938001338	0.77626485890542995527	
36	1	6.27620999999999984453	9.20134000000000007446	1.52475999999999989321	0.08638580702652999543	-0.80263607856691998599	0.04601380635621000331	
37	0	4.74898000000000042320	10.08810000000000073328	3.12179999999999990834	-0.22258528527791998641	-0.08365413695010999462	0.15445100979143999709	
38	0	4.79100000000000036948	0.87571699999999996766	9.20270000000000010232	-0.48757120196818998226	0.21353276577927998714	-0.30123356642359000457	
39	1	4.72529000000000021231	10.00050000000000061107	7.56325000000000002842	0.10105113104358999510	-0.08058060154498999927	0.88674793518728001196	
40	1	4.72942999999999980076	1.00025999999999992696	4.70655000000000001137	0.37402764142396000002	-0.48238408579614000526	-0.10530884235119999937	
41	1	4.76438999999999968082	10.00220000000000020179	10.76430000000000042348	-0.12127077087232999986	-0.19102056142632001245	-0.12618385190400999152	
42	1	4.74976000000000020407	0.90196900000000002073	1.55197999999999991516	-0.20753503475175999471	0.52997685761473001254	-0.26068852906850997764	
43	0	6.36430000000000006821	1.80262999999999995460	3.07651999999999992141	-0.57540537312116002422	0.34011253411848002548	0.10480512464204999601	
44	0	6.26501999999999981128	3.63362000000000007205	9.19998999999999966803	0.76673964797911997593	0.02974404994710999964	-0.71952962623455996027	
45	1	6.33175000000000043343	1.77245999999999992447	7.56674999999999986500	-0.06379616592476000658	0.19340211795000000761	0.84654419651938994651	
46	1	6.36983000000000032514	3.59853999999999984993	4.66797000000000039677	0.11142515537731000064	0.13904133981478999926	0.42406863929067001306	
47	1	6.35979000000000027626	1.90393999999999996575	10.78940000000000054570	-0.39621167286001002239	-1.10503821548199998581	0.02111612620307000074	
48	1	6.40538000000000007361	3.64699999999999979750	1.59301000000000003709	-0.72664917496357994686	0.07339129425647999971	-0.75182095004641003033	
49	0	7.92224000000000039279	4.58647000000000026887	3.11661000000000010246	-0.46640102033109998025	0.70883748650694000659	-0.18933404119447000413	
50	0	7.91999999999999992895	6.37023000000000028109	9.17088999999999998636	-0.14653334035824999715	-0.19725376295936999926	-0.71651654190917002385	
51	1	7.86374999999999957367	4.51742000000000043514	7.60658999999999974051	0.15169119574508999060	-0.15354084085694999495	0.35933633210144999559	
52	1	7.91594999999999959783	6.39489999999999980673	4.74500000000000010658	-0.21281243988972001202	0.03601220405018999704	-0.52264244622925004613	
53	1	7.87638000000000015888	4.57568000000000019156	10.73060000000000080433	-0.02006369426603999903	-0.27065376149048997467	0.45813676722809998365	
54	1	7.77981000000000033623	6.45322999999999957765	1.47855000000000003091	0.85400519059024004864	-0.36504942316110999823	1.02681647525351005257	
55	0	9.47193000000000040473	7.27777999999999991587	3.12015000000000020108	-0.62275394346076995422	1.11510298070124003189	-0.22623475579748000830	
56	0	9.53087000000000017508	9.09354000000000084469	9.11082000000000036266	-1.06587300649811989040	0.76041332511709003317	-0.77639886160937998660	
57	1	9.48123000000000004661	7.25410000000000021458	7.48953999999999986414	-0.05646131136890000096	0.18587602136024999888	0.63857027943918998059	
58	1	9.41362999999999949807	9.18393000000000014893	4.67644000000000037431	0.49801146540362001280	-0.57414997470035000759	-0.44119361782206001354	
59	1	9.49417000000000044224	7.33751999999999959812	10.65099999999999980105	0.31774614625559000070	-0.64493640734988999519	0.74282900718929001371	
60	1	9.43507999999999924512	9.08981999999999956685	1.49517999999999995353	0.42754991774250000747	-0.26153315855844000426	-0.10322229670697999349	
61	0	7.92391000000000023107	10.03870000000000040075	3.01752000000000020208	-0.47990968771462000353	1.05997326517648993160	0.80565505810211002213	
62	0	7.87366999999999972459	0.82097500000000001030	9.21279000000000003467	0.04913265857489999833	1.41848412470272999819	-0.10650175056716999766	
63	1	7.87188999999999960977	10.10360000000000013642	7.52055999999999968963	0.13978023070313000398	-1.16766923445577996965	0.83111781953377994459	
64	1	7.93834999999999979536	0.95332799999999995322	4.59384000000000014552	0.29290382015826998963	-0.38454601212348998862	0.28617682710867997642	
65	1	7.91687999999999991729	9.93499000000000087596	10.73900000000000076739	0.10819412027635999518	-0.03332234076790999838	-0.08065166259672999771	
66	1	7.94489000000000000767	0.95680699999999996308	1.45022999999999990806	-0.13169038738954000345	-0.23218508163257001176	0.22258543006327000113	
67	0	9.51680999999999954753	1.87963999999999997748	3.04306000000000009820	-0.44583505090162001139	-0.75730727857465995889	-0.47530245241508001230	
68	0	9.45509000000000021657	3.56190000000000006608	9.22574000000000005173	-0.56338606777774002943	1.23878810069689992979	-0.58794097907178000106	
69	1	9.41507000000000005002	1.81692000000000009052	7.68470000000000030838	-0.21664870835319999243	-0.45956892150565997746	-1.08403152940670999271	
70	1	9.47527000000000008129	3.68807000000000018147	4.60892000000000034987	0.32366415913926999126	-0.32703675382188002185	1.08949755051557994889	
71	1	9.50028000000000005798	1.74914999999999998259	10.76050000000000039790	-0.72137530261894999839	-0.05035719446443000236	0.71787299767639001224	
72	1	9.44571999999999967201	3.72401999999999988589	1.51930000000000009486	0.71380279051845996197	0.15621665667508999320	-0.17926940480819000823	
73	0	11.07089999999999996305	4.60554000000000041126	3.13732999999999995211	-0.04596655069781999808	0.42636666205556000842	-1.00857007395532005667	
74	0	11.03880000000000016769	6.33776999999999990365	9.09828000000000081116	-0.04239321202101999780	0.36848625072494001209	0.09871105139682999352	
75	1	10.98010000000000019327	4.47989999999999977121	7.59128000000000024983	0.09830233839238000648	0.05746575149654999798	-0.24559055684903000061	
76	1	11.08530000000000015348	6.47607999999999961460	4.70432999999999967855	0.25460500406190000877	-0.29390992190344000790	-0.40175859386619999780	
77	1	10.99460000000000015064	4.54811000000000031918	10.72509999999999941167	0.60266674048168999978	0.02881967549074999912	0.19981170016022001268	
78	1	11.02679999999999971294	6.48841999999999963222	1.49954000000000009507	0.64788077412413003220	-0.65820878677998995165	0.58436079444505995006	
79	0	0.06537709999999999355	7.37478999999999995651	3.08836000000000021615	-0.63286352485936003820	-1.05741767974042999434	-0.82389713263961994461	
80	0	-0.03264910000000000034	9.13641999999999931958	9.08755000000000023874	0.60951304135174000365	0.36212016259264001583	0.41800321369271997707	
81	1	0.00161578999999999998	7.33338000000000000966	7.55447999999999986187	-0.01116897099380999986	-0.52317947704791001318	-0.21191496512222998683	
82	1	0.03029499999999999901	9.15109999999999956799	4.61455999999999999517	-0.38905525744334001903	0.51828343384175001862	0.50149792401861004176	
83	1	0.00507187000000000002	7.23775000000000012790	10.66910000000000025011	-0.12081214497544000286	0.48430208978208999504	-0.07629433189077999833	
84	1	0.03918080000000000174	9.18046999999999968622	1.47324999999999994849	0.01694837483524000085	-0.05949119894249999679	0.47910200899978000466	
85	0	11.00919999999999987494	10.05949999999999988631	3.05451000000000005841	0.55038307025597998923	-0.53628147995557995387	-0.38883113340859998264	
86	0	10.97059999999999924114	0.86412400000000000322	9.16910000000000025011	1.74011367932203997455	0.07203640689877000014	-0.00935933426287999942	
87	1	11.02399999999999913314	10.14889999999999936620	7.50565000000000015490	0.18383210061753998965	-1.08554026105482992470	0.20000487282646001175	
88	1	10.96219999999999927809	0.84587100000000003952	4.65068999999999999062	0.58557445117832995773	0.70973257785250998264	-0.08847047193498999706	
89	1	11.09759999999999990905	9.97413000000000060652	10.74600000000000044054	-0.40227000744063001747	0.08505530781513000183	-0.39911768916846002142	
90	1	11.02280000000000015348	0.87199300000000001809	1.37294999999999989271	0.23840585629787000577	0.44910329977263002688	1.21765078262856007996	
91	0	-0.05870680000000000343	1.81065000000000009273	3.08153999999999994586	0.49418897974066000600	-0.26370744552686997686	-0.50721103036869996661	
92	0	-0.04114439999999999764	3.62728999999999990322	9.13152999999999970271	0.09748234010459000398	0.28804701392076997868	0.44700607895316002427	
93	1	-0.04779989999999999933	1.81451999999999991076	7.57969999999999988205	0.11625481988182999327	-0.14754584136196999267	0.06070380550481999787	
94	1	-0.04789380000000000026	3.58470000000000021956	4.70835000000000025722	0.08257905583659000404	0.27504203304939001118	-0.11688351866127999479	
95	1	-0.05090800000000000186	1.78607000000000004647	10.69330000000000069349	0.31698806986933997232	0.27241050462684002209	0.16692889840919999944	
96	1	-0.00283788000000000009	3.66992999999999991445	1.55668999999999990713	-0.29609415372088998541	-0.16539338823721000393	-0.25281888818337000524	
Energy
-80525.40077524249500129372
PlusStress:	xx	yy	zz	yz	xz	xy
5.02194627221935796513	1.82588727202585987541	3.91493317360437753649	2.50985284647384965240	2.47098540282893175402	-0.29026408410753840039
END_CFG

BEGIN_CFG
Size
96
Supercell
12.673299532349976	0.0	0.0
0.0	11.00788734971784	0.0
0.0	0.0	12.26683112715549
AtomData:	id	type	cartes_x	cartes_y	cartes_z	fx	fy	fz
1	0	1.56337999999999999190	4.65054000000000034021	3.04463999999999979096	-0.36070907590748002569	-0.96957674815452998818	1.97848735116125995503	
2	0	1.58499999999999996447	6.38677000000000028024	9.11894000000000026773	0.73482140721750000001	-1.10747898925972010353	1.02453565206840990776	
3	1	1.58828999999999997961	4.53446999999999977859	7.56222999999999956344	0.20663926742052998731	-0.12089004737113000221	0.00943053252850000086	
4	1	1.52492999999999989669	6.51421999999999989939	4.66485000000000038511	0.54567185342297996886	-0.64921690291737998990	-0.14436798203920001016	
5	1	1.58774999999999999467	4.48592999999999975103	10.67009999999999969589	-0.36231774228849000785	0.43167498208440002738	0.10632969668488999326	
6	1	1.55864000000000002544	6.39245999999999980901	1.54059999999999996945	0.41753472346630998713	0.98824600761220005030	-1.14477212391511007361	
7	0	3.14900000000000002132	7.36451999999999973312	3.08882000000000012108	0.14020809330479999666	-0.31364063726981999958	-0.59080729419136002178	
8	0	3.18481000000000014083	9.08703000000000038483	9.14893999999999962824	-0.32687625474884002275	1.04359342954967004857	0.36855824630532002528	
9	1	3.16326000000000018275	7.22935999999999978627	7.57467999999999985761	0.69597009180612001700	0.33422857233698999302	0.03904427914749999950	
10	1	3.13578000000000001180	9.15476999999999918600	4.70770999999999961716	0.09244349601364000579	0.05317730374217000122	-0.27102806100769999409	
11	1	3.18713999999999986201	7.32146000000000007901	10.72179999999999999716	-0.27917377094098000390	-0.52204951679528999176	0.10087779818184000602	
12	1	3.17790999999999979053	9.23132000000000019213	1.50436999999999998501	-0.57209064454473002037	-0.57933929980077003563	-0.08715481650827999749	
13	0	1.56220000000000003304	10.02730000000000032401	3.11580000000000012506	-0.50925054201310004931	1.65895971472988001949	-0.29462250032838999125	
14	0	1.56950999999999996071	0.83155500000000004412	9.14977999999999980218	0.42443229700994999920	0.69542171378985995212	0.51526042247759995529	
15	1	1.61661999999999994593	10.10790000000000077307	7.58063000000000020151	0.03551193496064999899	-1.07452046080308005749	-0.41825399418795999873	
16	1	1.45124000000000008548	0.91478199999999998404	4.71298999999999956856	0.60805512248505999562	-0.17293257102671999448	-0.63582544700623999656	
17	1	1.51211000000000006516	10.01290000000000013358	10.75210000000000043485	0.78552001809595994875	-0.04757149856147999817	-0.49992451302819002068	
18	1	1.57555000000000000604	0.97958599999999995678	1.54872999999999994003	-0.72108663197834999004	-0.83603836725570002120	-0.07843794020614000551	
19	0	3.05167000000000010473	1.91145000000000009344	3.09439999999999981739	0.90715465198102995803	-0.55777979291787005423	1.29014749340638990027	
20	0	3.18873000000000006438	3.58506999999999997897	9.17883999999999922181	-0.36890375278603998455	0.03721022490104999858	-0.65093410214666003188	
21	1	3.14436999999999988731	1.78896000000000010566	7.56981000000000037176	0.16035957962343000416	-0.02345543464611999848	-0.18232685828031000574	
22	1	3.11165000000000002700	3.68407000000000017792	4.74166000000000043002	-0.03084990436266000016	0.42726404502930998008	-1.09841450356968994839	
23	1	3.18636000000000008114	1.70328999999999997073	10.67670000000000030127	-0.05276312066823000274	0.39229457533417000370	0.48216359373433997915	
24	1	3.11540999999999979053	3.73994999999999988560	1.51222999999999996312	-0.25935943484497997469	-0.61222707734279002700	-0.63990189646928996581	
25	0	4.70007999999999981355	4.57380000000000030980	3.02561999999999997613	-0.56752774848610998415	0.28004155408873998567	1.22170555059376995111	
26	0	4.78990000000000026859	6.32244000000000028194	9.21317999999999948102	-1.00056763669571990860	0.28862530974900002523	-1.15972735132662996271	
27	1	4.81066000000000038028	4.46490000000000009095	7.65115000000000033964	-0.02897291076436999888	0.43329215278428001579	-0.14578050604284001346	
28	1	4.74237999999999981782	6.37455000000000016058	4.58560999999999996390	-0.06014498614490999817	0.30860834976652001815	0.38008842192718000907	
29	1	4.69618000000000002103	4.53619000000000038852	10.76640000000000085834	0.31754292451499999128	-0.38456781723223998348	0.54798174160034995861	
30	1	4.75004000000000026205	6.37431999999999998607	1.45182999999999995389	-0.36180597025638000508	0.62970914766194996393	0.16315781421281000396	
31	0	6.30693000000000036920	7.33161000000000040444	3.02897000000000016229	0.13053332081745000481	0.01355340748714000017	0.01827558338672000127	
32	0	6.34079000000000014836	9.07686999999999954980	9.16408000000000022567	-0.26640651091516998061	-0.23335262594455999374	1.23877208919172998591	
33	1	6.38818999999999981299	7.21468000000000042604	7.60759000000000007446	0.01882237720938999964	-0.02702791090287999867	0.59088475753183000716	
34	1	6.22412999999999971834	9.09833000000000069463	4.60404000000000035442	0.29508204991246000937	0.40064049192116002462	0.67553158212834996110	
35	1	6.23493000000000030525	7.21448000000000000398	10.82300000000000039790	1.26872247305051000232	0.62684796989020996616	-0.32407260503918999817	
36	1	6.34367999999999998550	9.22953000000000045588	1.48750000000000004441	-0.81978649227236999320	-0.41543333329415998989	0.03735477376284999929	
37	0	4.68071000000000037033	10.09750000000000014211	3.09127999999999980574	0.32217363736922999262	-0.01732243973970000114	0.05916860587965999674	
38	0	4.77226999999999978996	0.90233600000000002694	9.08933000000000035357	0.02081931121079000011	-1.21373828096247993180	1.47784483226551000001	
39	1	4.79297000000000039677	10.02650000000000041211	7.62980999999999998096	-0.13984350484251001356	-0.08687173776951999382	-0.65931173360183004117	
40	1	4.67443000000000008498	0.91779299999999996995	4.65427000000000035129	-0.16723423407440998756	0.27037068011518999855	0.06368927321527000085	
41	1	4.74793999999999982720	10.05669999999999930651	10.79139999999999943725	-0.03279444320781999683	-0.04768206760342000305	-1.15969509198681008932	
42	1	4.70023999999999997357	0.98520900000000000141	1.60528000000000004022	-0.74262981443024000949	-0.44148999980082997974	-1.15801101956887997346	
43	0	6.26674000000000042121	1.82922999999999991161	3.07991999999999999105	0.77986700615991000340	0.23148154405299001257	0.57001533999942999298	
44	0	6.36749000000000009436	3.62924999999999986500	9.27483999999999930708	-0.01282563087966000041	-0.31624485220696002541	0.03267309586599000115	
45	1	6.40829999999999966320	1.88372000000000006104	7.69629999999999991900	0.12243695420245000183	-0.58801285939993996887	-0.98217058895511000216	
46	1	6.26058000000000003382	3.67108999999999996433	4.56341999999999980986	0.02682902044036000050	-0.01163233353087000065	1.09139252395799002393	
47	1	6.35107999999999961460	1.66820999999999997065	10.75769999999999981810	-0.15942588836644999706	0.85099903168879997839	0.19261986744171999408	
48	1	6.22928000000000015035	3.67609999999999992326	1.51112000000000001876	0.74550558040643999380	-0.44193144032193998338	-0.76378974523283005293	
49	0	7.83321999999999984965	4.59391000000000016001	3.06841000000000008185	0.90309243879012002232	0.46190835071368002707	-0.28349559729153001042	
50	0	7.98501999999999956259	6.33368999999999982009	9.27058000000000070884	-1.42240214098894002248	0.03945432721499000234	-0.31647035446728000174	
51	1	7.95425999999999966406	4.51198000000000032372	7.66920999999999963848	-0.14798981301354999229	0.13612873065135999706	0.28019887762223999461	
52	1	7.92147000000000023334	6.43707999999999991303	4.63985999999999965127	-0.25250282882149999164	-0.02890596694424000038	-0.29369432516568000358	
53	1	7.94428999999999962967	4.50145999999999979480	10.83970000000000055707	0.27239644658882000705	0.08697213557579000498	0.16135352325717999822	
54	1	7.94254999999999977689	6.48183000000000042462	1.50631000000000003780	-0.38366675395983002028	-0.59708728861130000443	-0.46955861965042999806	
55	0	9.49358999999999930708	7.37873000000000001108	3.04090000000000015845	0.25427528050609998767	-1.12944723378265998726	-0.08291911863324000209	
56	0	9.50494999999999912177	9.10748000000000068610	9.18351999999999968338	0.03973940397979999761	-0.48008306983867998774	0.06442216305113999952	
57	1	9.50281000000000020123	7.19608999999999987551	7.65847000000000033282	-0.10619226061264999683	0.77306525725164998430	-0.49068153628731997484	
58	1	9.44760999999999917520	9.08726000000000055934	4.66363000000000038625	-0.28525089881645998569	0.71138316485313002335	0.37027152666052998153	
59	1	9.55742000000000047066	7.30721000000000042718	10.76600000000000001421	-0.00361623711516000004	-0.09570046186620999318	0.39276397564157999875	
60	1	9.43220999999999953900	9.21812000000000075772	1.55925000000000002487	0.09887249884705000269	0.15448420821414998727	-0.44182366224407998434	
61	0	7.81613999999999986557	10.09420000000000072760	3.11319999999999996732	1.04802864260257000417	-0.04501039871905999912	0.73970731918609000655	
62	0	7.96353000000000044167	0.84461600000000003341	9.21756000000000064176	0.05232315896581000297	-0.04857503035552999948	-0.33025048809867002531	
63	1	7.90744999999999986784	9.93265000000000064517	7.62363999999999997215	0.14717608820291999683	0.96252709201218999979	-0.27698609998626999573	
64	1	7.85836000000000023391	0.97231599999999995809	4.72834000000000020947	-0.09601971521702999668	-0.45064337916634999992	-0.62283853190492000085	
65	1	7.88544000000000000483	10.04800000000000004263	10.75420000000000086970	0.32819287355748000268	-0.57392321460207995631	0.06560445131398999485	
66	1	7.84593000000000007077	0.84265199999999995661	1.51800000000000001599	0.27277077934623000788	0.82770031212858996561	0.19600933302434001004	
67	0	9.45953000000000088221	1.83521000000000000796	3.11249000000000020094	-0.31534564994237002100	-0.36349173512763999216	-0.26071273650040999170	
68	0	9.53602000000000060709	3.60921000000000002927	9.24111000000000082366	-0.18714503699896001265	-0.13667882517554000299	0.11499350296315999365	
69	1	9.50624999999999964473	1.80918000000000001037	7.63973999999999975330	0.39065588614935997658	-0.38821870269227998218	0.21154616539095000283	
70	1	9.44724000000000074806	3.71315000000000017266	4.64623999999999970356	0.15065979249099001325	-0.04794857120088000246	-0.18475564593520998891	
71	1	9.62194000000000038142	1.74733000000000004981	10.82629999999999981242	-0.42868221232826997369	-0.16533605246335000838	-0.67493003156832998002	
72	1	9.43388999999999988688	3.65481999999999995765	1.54274000000000000021	0.18466141770212998741	0.01019736024531999949	-0.25732757564369002079	
73	0	11.09559999999999924114	4.58957999999999977092	3.05431000000000008043	-0.90663156050329996027	-0.05226298145040000204	-0.79730659853122998193	
74	0	11.09849999999999958789	6.35043999999999986272	9.16604000000000063153	0.51354759898949997599	0.50211693019128000870	1.23379894253134003712	
75	1	11.00789999999999935199	4.61486999999999980560	7.61603999999999992099	0.31189858369903000757	-1.08524736108634001219	-0.61044794522963996553	
76	1	11.12079999999999913030	6.41715999999999997527	4.50638000000000005230	-0.50027740725536995470	0.16991849025874000700	1.35482143942071009413	
77	1	11.13899999999999934630	4.53908000000000022567	10.77100000000000079581	0.10127039471300999796	-0.13808436914187000033	-0.33759334026018000818	
78	1	11.12059999999999959641	6.42943999999999959982	1.40724999999999988987	-0.27950032035831001709	-0.00319332256095999998	0.64255293492138998435	
79	0	0.00949150999999999988	7.34238999999999997215	3.04784999999999994813	-0.62240656183154996484	0.98258141326776005098	-0.81125469718140996722	
80	0	0.03514849999999999919	9.09629999999999938609	9.10120000000000040075	-0.56911518747834999310	0.03065378204574999849	0.50245684097731002637	
81	1	0.02624999999999999903	7.23097999999999974108	7.60862000000000016087	-0.48735515164851000991	0.44248882865240002360	-0.96322048228126999625	
82	1	-0.05096450000000000286	9.12720000000000020179	4.68968999999999969219	0.07705500012575000612	0.08502463055407000203	-0.26969713409441997687	
83	1	0.05234409999999999757	7.27894000000000040984	10.70960000000000000853	-0.19867044923157001213	0.10064512054943999808	0.09786260305761000644	
84	1	-0.09697730000000000239	9.27796999999999982833	1.48452999999999990521	0.50873180155303998617	-0.77217018766795997298	0.59639060191855997051	
85	0	11.01270000000000059970	10.07160000000000010800	3.14372000000000006992	0.48409986104015001462	0.94180937343687998187	-0.30320739637145999179	
86	0	11.15440000000000075886	0.79402300000000003433	9.17674000000000056332	-0.76829127881968994895	1.33228638319644998589	0.21913054331157000298	
87	1	11.05480000000000018190	10.03560000000000052012	7.59661000000000008470	0.24393386442522999036	-0.39951906110648000015	-0.40237048638618000407	
88	1	11.01500000000000056843	0.95666200000000001236	4.73022000000000009123	0.00866055665358999964	-0.38574820241154000877	-0.48361335215788997521	
89	1	11.13979999999999925819	9.96261999999999936506	10.70420000000000015916	-0.01086558482253000002	0.20547734461233999048	0.32013893729856002235	
90	1	11.08019999999999960494	0.90869200000000005524	1.50903999999999993697	-0.50813965419772000320	-0.10405289571098000345	0.57609824215168004002	
91	0	-0.07761790000000000356	1.82113999999999998103	3.11631999999999997897	0.39028081495969002557	0.95266806832255002124	0.04839364291979000171	
92	0	-0.02621360000000000010	3.59628000000000014325	9.06981999999999999318	0.27123259357325002483	0.35934437265739999079	1.30411985819394993236	
93	1	0.00966011999999999947	1.74137999999999992795	7.56984999999999974563	-0.23797518039533999135	0.01423866652245999939	-0.22549588786545998742	
94	1	-0.05166729999999999934	3.78442999999999996064	4.68911999999999995481	0.31041276619091001665	-0.78162837290241005128	-0.57923267269301004223	
95	1	0.04440129999999999771	1.83067000000000001947	10.74329999999999962768	-0.18776953736541998619	-0.41974731449463997812	-0.41544721714461002593	
96	1	-0.01034900000000000056	3.66457999999999994856	1.46894999999999997797	-0.05746766761207999785	-0.17458550953273999085	0.50603586474160999753	
Energy
-80525.23113508659298531711
PlusStress:	xx	yy	zz	yz	xz	xy
-3.12838151939133046753	-9.20390695167621508688	5.78691015347078252518	5.18705319507929640821	5.03312471746492562374	1.28929136779172526239
END_CFG

BEGIN_CFG
Size
96
Supercell
12.618027466620306	0.0	0.0
0.0	10.950277030614311	0.0
0.0	0.0	12.27093930114615
AtomData:	id	type	cartes_x	cartes_y	cartes_z	fx	fy	fz
1	0	1.67023000000000010346	4.53784000000000009578	3.11657999999999990592	-0.56050671348214997636	0.73192553456862996519	-0.45215905005946999129	
2	0	1.56896999999999997577	6.33711000000000002075	9.28218000000000031946	0.91002539376615998457	1.25329132308147994657	-1.36982989346839989508	
3	1	1.61915000000000008917	4.49763999999999963819	7.64557999999999982066	-0.49824165782045998219	0.51368928180885997659	0.33163385585604998607	
4	1	1.66009000000000006558	6.38037999999999971834	4.67950999999999961432	0.09368700742900999689	0.03916778322917000010	-0.75140698027551999783	
5	1	1.55737999999999998657	4.64463000000000025835	10.91150000000000019895	0.08005345446627999684	-1.14974554017408991946	-0.84035120957945996789	
6	1	1.61368000000000000327	6.32868999999999992667	1.42426999999999992497	0.37003054953136998995	0.03157007041575000256	0.56933340047261005168	
7	0	3.23953999999999986414	7.23843999999999976325	2.99169000000000018247	-0.65259520151297001345	1.10839498257381996460	0.60743629746853000650	