BEGIN_CFG
Size
96
Supercell
12.777542305437025	0.0	0.0
0.0	10.886644065974316	0.0
0.0	0.0	12.35824595400971
AtomData:	id	type	cartes_x	cartes_y	cartes_z	fx	fy	fz
1	0	1.55167000000000010473	4.59396999999999966491	3.05313999999999996504	-1.12419807551442008098	-0.60351113079841001152	-0.24387472495046000343	
2	0	1.63881000000000009997	6.37750000000000039080	9.19344000000000072248	-0.33452290135326001597	0.09929926552034999687	-0.19684761664966998751	
3	1	1.64833999999999991637	4.45284999999999975273	7.65658999999999956287	-0.95346229139976002021	0.86197327004558998986	-0.22283440631941001109	
4	1	1.45591000000000003745	6.40658999999999956287	4.53451000000000004064	0.59282436435643004469	0.00307878684070999990	1.27894952190921995516	
5	1	1.58969000000000004746	4.57380000000000030980	10.73620000000000018758	0.21872127380319000833	-0.25934191009168999775	0.49580978261498998005	
6	1	1.48843999999999998529	6.35327999999999981640	1.44713000000000002743	0.11006322081078000197	0.31781463428179002051	-0.09487469157592999525	
7	0	3.07141999999999981696	7.29204000000000007731	3.02348999999999978883	0.37610606849898997606	0.84342236431548001097	-0.63860316498511005001	
8	0	3.19016000000000010672	9.05645999999999951058	9.15257000000000076056	-0.55082925501804003154	0.47602603743735000252	1.21314390685989992313	
9	1	3.17350999999999983103	7.27385000000000037090	7.58084000000000024500	0.18747877532227000263	-0.35336893293551002726	0.00629912601899000005	
10	1	2.96537000000000006139	9.09258999999999950603	4.70500000000000007105	0.53862737066629995386	0.07588451768723999957	-1.16359578105091010514	
11	1	3.25077999999999978087	7.37171999999999982833	10.79609999999999914166	-0.29014883431907001476	-1.21053717917780989666	-0.26854239208662999960	
12	1	3.08047000000000004150	9.20692000000000021487	1.49957999999999991303	-0.37830837818784002202	-0.81383877569619000880	0.12306932951174999469	
13	0	1.41013999999999994905	10.02439999999999997726	3.07012000000000018218	0.75712583673283995189	0.15148529011153999413	0.15203622508670000535	
14	0	1.62345000000000005969	0.90672699999999994969	9.22338000000000057810	-0.42903317849608002543	0.36028799285978002631	0.77898928326867999949	
15	1	1.53065000000000006608	9.98525000000000062528	7.71070000000000010942	0.44323132595405001499	0.15360881655530000955	-1.05378568166675989914	
16	1	1.43656000000000005912	0.94808400000000003782	4.67705999999999999517	0.26466373116857000447	-0.18124124645987998994	-0.49928475453260001693	
17	1	1.67822000000000004505	9.97085000000000043485	10.85619999999999940599	-0.35563160527715997894	0.19625770591618998950	-0.60029922515300004893	
18	1	1.49276000000000008683	0.95994800000000002349	1.45056000000000007155	-0.17465589233959999405	-0.34175556418317998286	0.17796335626272999364	
19	0	3.07032999999999978158	1.82708000000000003737	3.05342000000000002302	-0.19734180459504999106	0.17207545114100000760	1.03126441898404008768	
20	0	3.20501000000000013657	3.61837000000000008626	9.19896999999999920306	-0.92387525666996994644	-0.84920818414159005005	0.92991791848875005044	
21	1	3.14726999999999978996	1.77854000000000000981	7.59318999999999988404	-0.02950569459599999833	0.41314155573582000969	-0.06527183751131999945	
22	1	3.06484999999999985221	3.73399999999999998579	4.67180000000000017479	0.67482037079151002690	-0.59736835869960003276	-0.31924487141548002489	
23	1	3.18290000000000006253	1.81258000000000008001	10.84379999999999988347	0.25573086146344997660	0.04666158069294999711	-0.81359590437006001906	
24	1	3.12534000000000000696	3.63628000000000017877	1.54754999999999998117	0.14615554004261999133	0.37730707264417001623	-0.78281414110795000116	
25	0	4.72644999999999981810	4.58480000000000043059	3.07222999999999979437	-0.25804861509907001116	-0.05543264948979999968	0.11075373625024000079	
26	0	4.79713999999999973767	6.36793999999999993378	9.18692000000000064119	-0.51536436778559002736	1.20184685846937000520	0.48176439432674000862	
27	1	4.68473999999999968225	4.58948000000000000398	7.71910999999999969390	0.95297172513721994935	-0.39713378733493998052	-2.07438541618106997433	
28	1	4.68437999999999998835	6.46619000000000010431	4.54800999999999966406	0.31803710422036002292	-0.48645761524053998670	0.52925958450110999198	
29	1	4.78214000000000005741	4.53603000000000022851	10.69969999999999998863	0.24270828104582001239	0.15577028693208999632	1.06832521580305006559	
30	1	4.82305000000000028137	6.38438999999999978741	1.42884999999999995346	-0.71822913416518996410	-0.00605325316492999997	0.57052446172505999478	
31	0	6.38093999999999983430	7.30196999999999984965	3.04305000000000003268	-1.30421094016832994633	-0.02140522828668999997	-0.02791161897157999963	
32	0	6.37312000000000011823	9.08843000000000067473	9.19003999999999976467	0.31507135981780998168	0.05156447467599999807	-0.61499354038152997948	
33	1	6.38056999999999963080	7.25868999999999964245	7.60193000000000029814	0.22675517557770999422	-0.05640837245101999742	0.24826316083330998707	
34	1	6.19601999999999986102	9.03110000000000034959	4.68506000000000000227	0.67634537247241999225	0.73033408764050999906	-0.73902630805125002489	
35	1	6.42182999999999992724	7.30497999999999958476	10.71610000000000084697	-0.34807151034659000732	-0.44722291252406998208	0.82797842878102001496	
36	1	6.25253000000000014325	9.09558999999999961972	1.41968999999999989647	0.02227483515752999924	0.00292513219588000015	0.53501434256569002645	
37	0	4.67905999999999977490	10.03930000000000077875	3.05203999999999986414	-0.49709587965704998824	-1.45940701285635010542	0.60914563136619004347	
38	0	4.72836000000000034049	0.92212899999999997647	9.13364999999999938041	0.21631459975785000127	-0.44981197701559000324	1.45119606897476005614	
39	1	4.70709999999999961773	9.93857000000000034845	7.62940000000000040359	0.87057634363650004961	0.43044116622866002153	-0.71361777523642000443	
40	1	4.64785000000000003695	0.89681400000000000006	4.62042999999999981497	0.32697157969972001634	0.62431356623517997306	0.17967044227407999446	
41	1	4.75037000000000020350	9.96391999999999988802	10.75799999999999911893	0.26899011081889001584	0.38802086642063998712	-0.36513094110501997935	
42	1	4.61552999999999968850	0.89532400000000000873	1.46534000000000008690	0.63796426862287003434	0.62781290492682995108	-0.00794835484274999948	
43	0	6.28352000000000021629	1.80695000000000005613	3.04226000000000018630	-0.28836543013130999658	-0.04942674308071000333	-0.06747004198561000476	
44	0	6.37087999999999965439	3.65098000000000011411	9.14117000000000068383	-0.68678299546796994779	-0.71699156266141994553	0.25728189295733999709	
45	1	6.31008000000000013330	1.83695999999999992625	7.60233999999999987551	0.24153843061825000516	-0.29343648057218002512	-0.59398901756910005290	
46	1	6.34949999999999992184	3.66525999999999996248	4.60358999999999962682	-0.27297207215593999319	-0.12190086139318999370	0.31265232934393999420	
47	1	6.33736000000000032628	1.80445999999999995289	10.73859999999999992326	-0.08712570358606999688	0.05417593760338999809	-0.39109948633906999049	
48	1	6.28927999999999975955	3.66114000000000006096	1.54736999999999991218	0.68616928806498000970	0.12221124707823000088	-0.46867930509127997407	
49	0	7.98885000000000022879	4.58976999999999968338	3.10096000000000016072	-0.97542250059958002240	0.06020149900970000328	-0.25689813749127998754	
50	0	7.97412000000000009692	6.32523999999999997357	9.21848999999999918487	-0.05769494569628000336	0.47976528083781999623	-0.69819789296581002969	
51	1	7.93147999999999964160	4.52695000000000025153	7.56991999999999976012	0.57775696363579998049	0.18983421515234999433	0.28303334057874002250	
52	1	7.93243000000000009209	6.43878000000000039194	4.68966999999999956117	0.01787239600545999924	-0.24555744312351998615	-0.22832914284996000398	
53	1	7.90807000000000037687	4.44414999999999960067	10.70989999999999930935	0.57383151657773001642	0.73278455219506000162	0.88220024610173997104	
54	1	7.99612000000000033850	6.42743000000000019867	1.52526000000000006018	-0.12006897561667000118	-0.45129329997916001194	-0.14740335160761999789	
55	0	9.50750999999999990564	7.37692999999999976524	3.12747000000000019426	0.24962961021287000118	-0.84769336771002001818	-0.92405505483386995991	
56	0	9.64663999999999965951	9.11693999999999959982	9.21339000000000041268	-0.82298520308798994716	0.11377827220594000091	-0.31977282716995997225	
57	1	9.60130999999999978911	7.21370000000000022311	7.69920999999999988717	-0.08730217739694000334	0.42088054726327001065	-0.35179649707838001049	
58	1	9.43338999999999927581	9.19378999999999990678	4.60247000000000028308	0.46592745934298002153	0.24710977951724000246	0.23330095242966000790	
59	1	9.52230999999999916383	7.37999000000000027200	10.78739999999999987779	0.29541825407386002045	-1.03327364318080006100	0.37625408168143997800	
60	1	9.42678000000000082537	9.05325999999999986301	1.37887000000000004007	0.28653834328858002189	0.58156056197450001211	0.78183882296486995056	
61	0	7.84778999999999982151	9.95228000000000001535	3.02041000000000003922	-0.15703110967455000124	0.59969079364727995163	-0.13377981875568001335	
62	0	7.91755000000000030980	0.88119700000000000806	9.13927999999999940428	0.44737991493387002651	0.90423045184714001543	-0.42081936728218999333	
63	1	8.04892000000000074067	9.91211000000000019838	7.60930000000000017479	-0.47962691605716001320	0.29545352573179001210	-0.04020149110572000112	
64	1	7.87167999999999956628	0.87758400000000003072	4.58337000000000038824	-0.46883852216101001842	0.09650205091718999650	0.51458488470871999176	
65	1	7.96537000000000006139	10.06140000000000078728	10.74639999999999950830	0.02797406003217000128	-0.75675460507471004057	0.08032309783310999374	
66	1	7.89121999999999967912	0.86315600000000003433	1.43575999999999992518	-0.22069536532539998919	0.69324234748494995006	0.61083794290270998495	
67	0	9.42417000000000015802	1.89399999999999990585	3.11785999999999985377	1.23526966964595996679	-0.64246280635523000946	-1.23176630811574994162	
68	0	9.57019999999999981810	3.63668000000000013472	9.19562999999999952649	-0.47157163657048001282	-0.06715436219254000694	-0.09297603613603999673	
69	1	9.58630999999999922068	1.84719000000000010964	7.59672000000000036124	-0.35043087397562999730	-0.31475631990811997474	0.26899169018635998851	
70	1	9.51727999999999951797	3.65571000000000001506	4.72252000000000027313	-0.02133154704136000154	0.50346811659190005006	-0.35096935768853998461	
71	1	9.45073999999999969646	1.78608999999999995545	10.72630000000000016769	0.46543622212835999985	0.31454139470992997785	0.27906126895346000660	
72	1	9.54138000000000019440	3.66654999999999997584	1.49531999999999998252	-0.53008323568685000726	0.30182019774963997349	0.08530332553541999929	
73	0	11.03170000000000072760	4.65965999999999969106	3.07320999999999999730	0.85325525845539995640	-0.90753678618360000829	1.29877197304497005170	
74	0	11.14380000000000059401	6.35794000000000014694	9.27887999999999912859	0.63124478516978999032	0.14655642431828000416	-0.73047439223140997466	
75	1	11.19379999999999952820	4.49035999999999990706	7.66012999999999966150	-0.13846385790454998621	0.82255978387374995009	-0.00901495938862000024	
76	1	11.10890000000000021885	6.55419999999999980389	4.73648000000000024556	-0.30961402845871999201	-1.10110012644823007655	-0.49002460352840998548	
77	1	11.14419999999999966178	4.58708000000000026830	10.84689999999999976410	-0.13842338840870999084	-0.67349417079241002959	-0.18358169799231000008	
78	1	11.07719999999999949125	6.42931999999999970186	1.49916000000000004810	-0.37189215626885002708	0.01385556079031999982	-0.08959171976690999406	
79	0	-0.13477100000000000191	7.27324999999999999289	3.05959000000000003183	0.13538193293142999907	0.45398047300423000072	-0.46542806291263999485	
80	0	0.01208260000000000063	9.16200000000000081002	9.27838000000000029388	-0.57370069344327001559	-0.65335573629878995749	0.23024364106410000197	
81	1	-0.04125070000000000126	7.38201999999999980417	7.69545000000000012363	0.16313975275042000290	-0.90294245584331001009	0.05622286987197999686	
82	1	-0.27899099999999998900	9.12710000000000043485	4.56280000000000018900	0.80408421207292002375	0.25370530855720002661	0.33212241724278002142	
83	1	0.04619820000000000176	7.24488999999999983004	10.76120000000000054285	-0.19553587641292000110	0.37256194990419999602	0.44860195218906001591	
84	1	-0.13169800000000000950	9.06348999999999982435	1.51618999999999992667	-0.00617554237340999998	0.50260986127887996577	-0.87375415258019994980	
85	0	11.02169999999999916440	10.08179999999999942872	2.95045000000000001705	-0.76314529078813997387	-0.49859884067698001520	0.74433426368535005047	
86	0	11.13659999999999961062	0.93257100000000003881	9.22813000000000016598	0.41098123803781999586	0.19504841756398999530	-0.30169966311948998028	
87	1	11.21829999999999927240	10.04930000000000056559	7.60355999999999987438	-0.03034436860906999933	-0.20807978418313000102	0.61755340310270001591	
88	1	11.05300000000000082423	0.98397900000000004805	4.65125999999999972800	0.03813719679523999706	-0.30155651310810999144	-0.62336275486591996575	
89	1	11.18500000000000049738	10.06889999999999929514	10.82249999999999978684	-0.05181703000999000192	-0.31419119205244999682	0.21736060158389999830	
90	1	11.03459999999999929798	1.05532000000000003581	1.43952999999999997627	-0.14994116564915999090	-0.30106213261484998656	0.20854711451381999221	
91	0	-0.09886240000000000305	1.79459999999999997300	3.02970000000000005969	-0.42072114281472000608	1.28912576241205001359	0.71288466450072995872	
92	0	-0.04172340000000000076	3.61906999999999978712	9.23893999999999948614	0.70094264087477997638	1.09641767262853995213	0.11191874283055999739	
93	1	-0.01552910000000000054	1.85017999999999993577	7.69716000000000022396	0.03366241660113999945	-0.51000503720595002921	-0.46896936176756998105	
94	1	-0.04681930000000000119	3.66364000000000000767	4.61172999999999966292	-0.46741755996549000374	0.10979970128631999504	-0.27536797762184000993	
95	1	0.01330289999999999945	1.84396000000000004349	10.77800000000000046896	-0.30820115687650001535	-0.42831097843822002469	0.39787017389790002575	
96	1	-0.15027099999999998792	3.67919999999999980389	1.55394999999999994245	0.42415502537722998833	0.20161396697986999627	-0.40547840212629998602	
Energy
-80524.30700504410197027028
PlusStress:	xx	yy	zz	yz	xz	xy
-15.91025037032192201991	14.13023871513217244456	8.70302282320481701561	-8.93239035373403211793	3.72610531790208421299	0.16820599377939696173
END_CFG

BEGIN_CFG
Size
96
Supercell
12.703313475820122	0.0	0.0
0.0	11.008149754530766	0.0
0.0	0.0	12.484771137317892
AtomData:	id	type	cartes_x	cartes_y	cartes_z	fx	fy	fz
1	0	1.67610999999999998877	4.56346999999999969333	3.04146999999999989583	0.08665013157228000640	-1.30495195785633000263	-0.46801157539406001984	
2	0	1.42009999999999991793	6.33424000000000031463	9.37008999999999936392	-0.48303775108036001162	0.17933848186436998629	-3.08356977829919998157	
3	1	1.36353999999999997428	4.38337000000000021060	7.74507000000000012108	0.38478620302318000679	0.86418385091048999236	0.27900899913382998241	
4	1	1.54227000000000002977	6.38042999999999960181	4.53749999999999964473	-0.23908229789210999616	-0.67013318776723995729	1.44896000433614990932	
5	1	1.70662000000000002586	4.52831999999999990081	10.88790000000000013358	-1.65565615728173010091	-0.65307571550436005481	0.28691921622048999208	
6	1	1.58387999999999995460	6.24917999999999995708	1.42205000000000003624	0.03214999193262999683	1.05117058661681994636	-0.23518203200313000933	
7	0	3.05635000000000012221	7.29741999999999979565	3.04418999999999995154	1.30049010248732010986	0.85757328599322002471	-1.37023889454159997214	
8	0	3.09493999999999980233	9.19476000000000048828	9.35750999999999955037	0.14692479103169001076	-0.41341459262206997627	-1.40579413847925005498	
9	1	3.02491999999999983118	7.41028999999999982151	7.73632999999999970697	0.26680086202052000210	-1.01816143457243990511	1.09261815870802991846	
10	1	3.23498000000000018872	8.98297999999999952081	4.79976000000000002643	0.08323247005415999877	0.80513160453984999876	-1.40429323465041999697	
11	1	2.90931000000000006267	7.23165000000000013358	10.81859999999999999432	1.26672184986557989639	1.38448202607250991925	1.69019482714763991105	
12	1	3.32172000000000000597	9.20152999999999998693	1.44832999999999989527	-1.55776382651628009235	-0.78389913911270003855	-0.01873998460545000036	
13	0	1.73222000000000009301	9.97491999999999912063	3.11848999999999998423	-0.04653787159785000016	1.85384378101730007415	0.06540261782018000347	
14	0	1.49055000000000004157	0.83550699999999999967	9.31165000000000020464	0.90939023274157004817	-0.42192298034545000496	0.58989323805821003432	
15	1	1.45439000000000007162	10.03730000000000011084	7.69022999999999967713	1.25898733299566001342	0.41301809857689997241	0.35184037826060998722	
16	1	1.63328000000000006509	0.93507899999999999352	4.64503000000000021430	-0.02377507993133000028	-0.49465764191928002225	-0.60515793802720996286	
17	1	1.72653999999999996362	10.02239999999999930935	11.11810000000000009379	-1.42631303218380001141	0.28560595363487001341	-2.04380311644760981338	
18	1	1.64202000000000003510	0.89448899999999997856	1.46863000000000010203	1.15622671553103995024	-0.73586408520784996057	0.03995733625937000072	
19	0	3.28438000000000007716	1.79007999999999989349	3.07580000000000008953	-1.13630697110126011040	-0.19741377939922999385	-0.16123221094026998768	
20	0	3.06777999999999995140	3.60436999999999985178	9.20275999999999960721	1.02441048953712998681	0.18316909768456998697	0.22193776685684998839	
21	1	3.02238000000000006651	1.74672999999999989384	7.67068999999999956430	0.38025954112692000875	-0.06024831512505000181	0.20844129237420000456	
22	1	3.31648999999999993804	3.60843999999999986983	4.69312000000000040245	-0.73313182098832996303	0.08646352290512999972	-0.51137669774035998671	
23	1	3.22813999999999978741	1.88239000000000000767	10.84999999999999964473	-0.71841177377529996662	-0.93374404033222002663	-0.59367588562047002299	
24	1	3.32827999999999990521	3.55309000000000008157	1.45453000000000010061	-0.74479677356777995723	0.37349702186136002346	0.25755017912645000733	
25	0	4.77510000000000012221	4.52221999999999990649	3.04544000000000014694	0.44601422660770001505	0.94626781975701002025	-1.64508351078730008510	
26	0	4.65674000000000010147	6.46480000000000032401	9.44971999999999923148	-0.22018963541987998656	-0.81865799318370002791	-3.08967237287799001422	
27	1	4.72644000000000019668	4.59536999999999995481	7.76733999999999991104	-0.67338479000133999453	0.59559907701165004656	-0.24175486975159998781	
28	1	4.56522000000000005571	6.36125999999999969248	4.54650999999999960721	1.71205160799601996402	0.06757127980985000448	0.17736358985503999919	
29	1	4.55905999999999966832	4.56073000000000039478	10.87480000000000046612	1.14620411933929000625	-0.39261771217946001000	-0.30241417771130002512	
30	1	4.59431000000000011596	6.54975000000000040501	1.36558000000000001606	0.52160566120917994937	-1.58006488588531990302	0.42239685798262999183	
31	0	6.28199000000000040700	7.29860000000000042064	2.87775999999999987367	-0.53499287396951999973	1.29603714499459998777	0.69672342737859005446	
32	0	6.29671000000000002927	9.12049000000000020805	9.22816000000000080661	0.36679957926314998851	0.77250427351238004636	0.24380375452219998911	
33	1	6.24232000000000031292	7.34041999999999994486	7.68710999999999966548	-0.22273287864078000764	-0.96244389630455995377	0.61736900254504001317	
34	1	6.51620000000000043627	9.11546000000000056218	4.50619000000000013983	-1.29809295279843994741	-0.27067046010569001391	0.25406391632225999722	
35	1	6.24399000000000015120	7.39409999999999989484	10.92709999999999936904	0.56785320312576004209	-0.50481910364932003343	-0.32714982590669000606	
36	1	6.36491000000000006764	9.30442999999999997840	1.43708999999999997854	-0.39626119860948999518	-1.24284011683212991528	-0.73652636143099003974	
37	0	4.76339999999999985647	10.01280000000000036664	3.03479000000000009862	1.11294441964053003602	0.42228956107850001978	1.71503326171917991338	
38	0	4.71086999999999989086	0.85381099999999998662	9.21069999999999922125	0.28619549865532001309	1.05338014561059001295	-0.71511673353331994818	
39	1	4.80668999999999968509	10.09040000000000070202	7.57540000000000013358	-1.13446413511494004211	-0.53631797746308995656	1.12087814795038998028	
40	1	4.77332000000000000739	0.79261700000000001598	4.65575000000000027711	0.38324772186930000650	0.37658184707275998981	-0.22805868656579000864	
41	1	4.75255000000000027427	10.12749999999999950262	10.81610000000000049170	0.08200935748130000480	-0.45991744626403002760	0.09605311795936000152	
42	1	4.85949999999999970868	0.85426199999999996582	1.49492000000000002657	-1.04037871823637995128	0.01023901471246000013	-0.44931890506451999112	
43	0	6.33877999999999985903	1.80302000000000006708	3.02397999999999989029	0.62850194241528001271	0.43592036111510001906	-0.09724129063938999340	
44	0	6.25842000000000009408	3.57920000000000015916	9.22277000000000057867	1.32571216961485993657	0.80194846486994997292	0.14495261497830999597	
45	1	6.33701999999999987523	1.79091000000000000192	7.48026000000000035328	-0.54748359440936000819	0.08904144571444999601	1.61683810687578000120	
46	1	6.38907000000000024897	3.63433999999999990393	4.53946000000000005059	0.13133649757678000913	0.45179703793384001775	0.49305298029474997623	
47	1	6.28957999999999994856	1.77855999999999991878	10.78030000000000043769	-0.02104933109943999889	-0.33371663848539001584	-0.25267795293075001606	
48	1	6.46279000000000003467	3.67999000000000009436	1.32486999999999999211	-1.02636791454527998013	-0.12187620550187000523	1.38185380272437008387	
49	0	7.96326999999999962654	4.62469999999999981100	2.99602000000000012747	-0.04994526962775999723	-1.85113665305512009596	-1.26821744190759999604	
50	0	7.84018000000000014893	6.29612000000000016087	9.26716000000000050818	-1.03216871348253991236	1.42451329720428998549	-0.55246280632233002450	
51	1	7.98139000000000020663	4.56268999999999991246	7.57533000000000011909	-0.63201182006090994570	-0.39615974051225000263	1.36573000919504994322	
52	1	7.85552999999999990166	6.44376999999999977575	4.36101999999999989654	0.69746090685605000026	0.65251623326359997623	1.98676316942930997200	
53	1	7.78601999999999971891	4.59644000000000030326	10.91450000000000031264	0.33805992106033000422	-0.87246359222289004975	-0.93136569943727998133	
54	1	7.89376000000000033197	6.42471999999999976438	1.38955000000000006288	-0.08286864529682999581	-0.12704428688100000144	-0.95611896156069997588	
55	0	9.49231999999999942474	7.43663000000000007361	2.84229000000000020520	0.57709698241207996183	-1.91172840235505003825	0.09777163751579999451	
56	0	9.42098000000000013188	9.18699999999999938893	9.15831999999999979423	0.87362852891432996039	-1.23937178056279995175	0.08148597397925000374	
57	1	9.34099999999999930367	7.35869000000000017536	7.66823000000000032372	0.92084563596771995542	-0.86463479349386995754	-0.06351768128677000302	
58	1	9.56450000000000066791	9.08172000000000068098	4.48617000000000043514	-0.02355164009641999914	1.43347626766437996615	0.31264895640552997635	
59	1	9.46523999999999965382	7.13731000000000026517	10.75559999999999938325	-0.24437361977860000417	1.45461926225066995322	0.25991694720728997225	
60	1	9.53073000000000014609	9.17173000000000016030	1.29505000000000003446	0.38499040041848997529	1.35609559759416997693	0.76268936913843998759	
61	0	7.91875000000000017764	10.16849999999999987210	2.94901999999999997470	2.07194967538009011676	-0.79036285963701002899	0.60310387827627998103	
62	0	7.81527999999999956060	0.78661999999999998590	9.16070000000000028706	0.48879268966202998881	0.98716635558762000358	1.35491775418205007142	
63	1	7.82212999999999958334	10.04449999999999931788	7.53544999999999998153	0.25650797549941001252	-0.29015123589785002389	0.58838658132157994896	
64	1	7.90819000000000027484	0.96902200000000004998	4.60508999999999968367	0.47476938004609997579	-0.34058646716064000515	-0.63288578126012995373	
65	1	7.98608999999999991104	9.93491000000000035186	10.81250000000000000000	-1.12344114671936989858	0.89811817097080004491	-0.22430810630985001386	
66	1	7.87143999999999977035	0.92400499999999996525	1.38369000000000008654	-0.07218799893782000543	0.24053088902326999476	-0.31341246145555001767	
67	0	9.45526000000000088619	1.87274999999999991473	2.87918999999999991601	1.43035940790186999472	-1.60834410371957003960	2.26070560244441987052	
68	0	9.49568999999999974193	3.72156999999999982265	9.30971000000000081798	-0.55851576647018996713	-1.08036225715508993339	0.22738554376784000932	
69	1	9.46846999999999994202	1.70700000000000007283	7.75359999999999960352	-0.09861180166274000070	1.57502792003665992304	-0.40416273997988999556	
70	1	9.59806999999999987949	3.63533000000000017238	4.57467999999999985761	-0.30499300858395000935	0.69968642619892995604	-1.11883588753338991673	
71	1	9.40755000000000052296	1.83081000000000004846	10.83779999999999965610	-0.45617533823898998024	0.01081271528354999997	-0.08177206462309000168	
72	1	9.42379000000000033310	3.55390000000000005898	1.34939000000000008939	0.54747003517073000722	1.78933148434220989920	-0.69077611680058004229	
73	0	11.06569999999999964757	4.66056000000000025807	2.81632999999999977803	-0.05041998755208999816	-1.11424353598811998189	1.14248924907641002946	
74	0	11.10469999999999934914	6.39440999999999970527	9.24313000000000073442	-1.00964278887157998810	-0.44602066848783000763	-0.60296573980020995442	
75	1	11.09919999999999973284	4.52045000000000030127	7.74275999999999964274	0.30194971471288001297	-0.33906719737578999707	0.39132293741164997369	
76	1	11.08730000000000082139	6.45223999999999975330	4.37934999999999963194	-0.86972833033055996221	-0.35451552495409999199	1.08215258893079990798	
77	1	11.28049999999999997158	4.61953000000000013614	10.96429999999999971294	-1.58754131413692989305	-0.41084451213221001575	-0.59249153225316997240	
78	1	11.16709999999999958220	6.54617999999999966576	1.26573000000000002174	-0.39676444433277002766	-0.40621798108848999886	0.37530891655990999967	
79	0	0.02470390000000000086	7.26977000000000028734	2.99090999999999995751	0.29696041458791999634	1.24432350154046988955	-1.64713772740328989741	
80	0	-0.04477579999999999755	9.15090999999999965553	9.21424000000000020805	-0.08960681125562999783	-0.26388137157598001714	1.31705002840881002513	
81	1	-0.10839000000000000024	7.34142000000000027882	7.62134000000000000341	0.35897080711538997821	-0.33157709744635999183	0.60119207577811994980	
82	1	0.18651200000000001111	8.99078000000000088221	4.67558000000000006935	-1.13066399500328995664	0.99918602319936000722	-0.53021047610589999710	
83	1	-0.20356599999999999695	7.35787999999999975387	10.85660000000000025011	1.05007797647036005273	0.04726168908983999911	0.04073632072244000313	
84	1	0.16722300000000001052	9.26354000000000077364	1.52692999999999989846	-0.50934169539741003252	-0.98966481168855002792	-0.21124539912622999904	
85	0	11.24290000000000055991	10.14020000000000010232	3.06208999999999997854	-1.27009898171405999356	-1.26585047131641004192	-0.80705014420451004487	
86	0	11.02159999999999939746	0.95505399999999995853	9.34397000000000055309	1.45975772379932999812	-1.42344637770212001371	0.48638279110292997887	
87	1	11.13949999999999995737	10.27820000000000000284	7.69393999999999955719	-0.76404693674930002079	-1.38046279959961992745	-0.19256087921573999955	
88	1	11.09909999999999996589	0.97223099999999995635	4.58809999999999984510	0.31823404178712999535	-0.03233284336796000275	-0.95219830458205001467	
89	1	11.03059999999999973852	9.94684999999999952536	10.74080000000000012506	-0.10940732340535000433	1.01739951728263000597	0.59574711341659003505	
90	1	11.11439999999999983515	0.87348999999999998867	1.32086999999999998856	0.32291338459544999262	0.15690912802685999528	1.06846241569949995665	
91	0	0.09389830000000000398	1.76463999999999998636	2.93028999999999983928	-2.01665598254164013525	1.29967631630429991674	1.45400732339211002930	
92	0	-0.06325129999999999642	3.43224999999999980105	9.44176000000000037460	0.86910797622887003833	2.18066052652737996098	-1.17401390958790008412	
93	1	-0.07239279999999999327	1.73280999999999996142	7.68944000000000027484	-0.13931591255216999037	0.23400909938285999190	0.90798514750102998772	
94	1	-0.05222070000000000184	3.70886000000000004562	4.44355999999999973227	0.04317335649062999797	-0.36966351299847000078	0.18172851866409001076	
95	1	0.05502619999999999734	1.62057000000000006601	11.01929999999999942872	-0.99610413885261994693	0.51325755759196001193	-0.38681212573772999486	
96	1	0.04961750000000000188	3.69226000000000009749	1.45594000000000001194	0.40781113662112000728	-0.45966857924243997857	-0.73856528449454994512	
Energy
-80519.32609075220534577966
PlusStress:	xx	yy	zz	yz	xz	xy
-11.51017399678573482902	-12.30504447637310860841	-27.60077698878809115968	12.15128018760126593634	-4.52731585014432269531	0.86570160286109743009
END_CFG

BEGIN_CFG
Size
96
Supercell
12.644846896328927	0.0	0.0
0.0	10.959871055735796	0.0
0.0	0.0	12.504762180732488
AtomData:	id	type	cartes_x	cartes_y	cartes_z	fx	fy	fz
1	0	1.56834999999999991083	4.87338999999999966661	2.98536000000000001364	0.89607758505904000490	-1.61629631164329001791	0.06956055257139000247	
2	0	1.56543000000000009919	6.03932000000000002160	9.29772999999999960608	-1.35812451011761003983	2.48863156481213998461	-1.26777944634535999491	
3	1	1.45666999999999990933	4.32216000000000022396	7.71391999999999988802	-0.74142037689014994584	-0.50127841327594002685	-0.97555974462566996674	
4	1	1.74363000000000001322	6.55954000000000014836	4.53019999999999978257	-0.73277561957570003237	1.65925399429021003250	-0.06811170042231000366	
5	1	1.46266000000000007120	4.22356999999999960238	10.85180000000000077875	-0.53002128914694002226	0.45543326214724999534	0.02837280682008999980	
6	1	1.69001000000000001222	6.67670999999999992269	1.43419000000000007589	0.19085943029169000207	-0.40720681757603999218	-1.11992152104200992646	
7	0	3.33079999999999998295	7.60960999999999998522	2.92271999999999998465	-0.67746370160002999938	-1.19590880911251007390	1.62631076190690992966	