BEGIN_CFG
 Size
    96
 Supercell
        12.638883      0.000000      0.000000
         0.000000     10.945594      0.000000
         0.000000      0.000000     12.258838
 AtomData:  id type       cartes_x      cartes_y      cartes_z           fx          fy          fz
             1    0       1.579860      4.560664      3.064709     0.000000    0.000000    0.000000
             2    0       1.579860      6.384930      9.194128     0.000000   -0.000000   -0.000000
             3    1       1.579860      4.560664      7.616701     0.000000    0.000000    0.047078
             4    1       1.579860      6.384930      4.642137     0.000000   -0.000000   -0.047078
             5    1       1.579860      4.560664     10.771556     0.000000    0.000000   -0.047078
             6    1       1.579860      6.384930      1.487282     0.000000   -0.000000    0.047078
             7    0       3.159721      7.297063      3.064709     0.000000    0.000000   -0.000000
             8    0       3.159721      9.121328      9.194128     0.000000   -0.000000   -0.000000
             9    1       3.159721      7.297063      7.616701    -0.000000    0.000000    0.047078
            10    1       3.159721      9.121328      4.642137    -0.000000   -0.000000   -0.047078
            11    1       3.159721      7.297063     10.771556    -0.000000    0.000000   -0.047078
            12    1       3.159721      9.121328      1.487282    -0.000000   -0.000000    0.047078
            13    0       1.579860     10.033461      3.064709     0.000000    0.000000   -0.000000
            14    0       1.579860      0.912133      9.194128     0.000000   -0.000000   -0.000000
            15    1       1.579860     10.033461      7.616701     0.000000    0.000000    0.047078
            16    1       1.579860      0.912133      4.642137     0.000000   -0.000000   -0.047078
            17    1       1.579860     10.033461     10.771556     0.000000    0.000000   -0.047078
            18    1       1.579860      0.912133      1.487282     0.000000   -0.000000    0.047078
            19    0       3.159721      1.824266      3.064709     0.000000    0.000000   -0.000000
            20    0       3.159721      3.648531      9.194128    -0.000000   -0.000000   -0.000000
            21    1       3.159721      1.824266      7.616701     0.000000    0.000000    0.047078
            22    1       3.159721      3.648531      4.642137    -0.000000   -0.000000   -0.047078
            23    1       3.159721      1.824266     10.771556    -0.000000    0.000000   -0.047078
            24    1       3.159721      3.648531      1.487282    -0.000000   -0.000000    0.047078
            25    0       4.739581      4.560664      3.064709    -0.000000    0.000000   -0.000000
            26    0       4.739581      6.384930      9.194128    -0.000000   -0.000000   -0.000000
            27    1       4.739581      4.560664      7.616701    -0.000000    0.000000    0.047078
            28    1       4.739581      6.384930      4.642137    -0.000000   -0.000000   -0.047078
            29    1       4.739581      4.560664     10.771556    -0.000000    0.000000   -0.047078
            30    1       4.739581      6.384930      1.487282    -0.000000   -0.000000    0.047078
            31    0       6.319442      7.297063      3.064709     0.000000    0.000000   -0.000000
            32    0       6.319442      9.121328      9.194128     0.000000   -0.000000   -0.000000
            33    1       6.319442      7.297063      7.616701     0.000000    0.000000    0.047078
            34    1       6.319442      9.121328      4.642137     0.000000   -0.000000   -0.047078
            35    1       6.319442      7.297063     10.771556     0.000000    0.000000   -0.047078
            36    1       6.319442      9.121328      1.487282     0.000000   -0.000000    0.047078
            37    0       4.739581     10.033461      3.064709    -0.000000    0.000000    0.000000
            38    0       4.739581      0.912133      9.194128    -0.000000   -0.000000   -0.000000
            39    1       4.739581     10.033461      7.616701    -0.000000    0.000000    0.047078
            40    1       4.739581      0.912133      4.642137    -0.000000   -0.000000   -0.047078
            41    1       4.739581     10.033461     10.771556    -0.000000    0.000000   -0.047078
            42    1       4.739581      0.912133      1.487282    -0.000000   -0.000000    0.047078
            43    0       6.319442      1.824266      3.064709     0.000000    0.000000   -0.000000
            44    0       6.319442      3.648531      9.194128     0.000000   -0.000000   -0.000000
            45    1       6.319442      1.824266      7.616701     0.000000    0.000000    0.047078
            46    1       6.319442      3.648531      4.642137     0.000000   -0.000000   -0.047078
            47    1       6.319442      1.824266     10.771556     0.000000    0.000000   -0.047078
            48    1       6.319442      3.648531      1.487282     0.000000   -0.000000    0.047078
            49    0       7.899302      4.560664      3.064709    -0.000000    0.000000   -0.000000
            50    0       7.899302      6.384930      9.194128    -0.000000   -0.000000   -0.000000
            51    1       7.899302      4.560664      7.616701    -0.000000    0.000000    0.047078
            52    1       7.899302      6.384930      4.642137    -0.000000   -0.000000   -0.047078
            53    1       7.899302      4.560664     10.771556     0.000000    0.000000   -0.047078
            54    1       7.899302      6.384930      1.487282    -0.000000   -0.000000    0.047078
            55    0       9.479162      7.297063      3.064709     0.000000    0.000000   -0.000000
            56    0       9.479162      9.121328      9.194128     0.000000   -0.000000   -0.000000
            57    1       9.479162      7.297063      7.616701     0.000000    0.000000    0.047078
            58    1       9.479162      9.121328      4.642137     0.000000   -0.000000   -0.047078
            59    1       9.479162      7.297063     10.771556     0.000000    0.000000   -0.047078
            60    1       9.479162      9.121328      1.487282     0.000000   -0.000000    0.047078
            61    0       7.899302     10.033461      3.064709    -0.000000    0.000000   -0.000000
            62    0       7.899302      0.912133      9.194128    -0.000000   -0.000000   -0.000000
            63    1       7.899302     10.033461      7.616701    -0.000000    0.000000    0.047078
            64    1       7.899302      0.912133      4.642137    -0.000000   -0.000000   -0.047078
            65    1       7.899302     10.033461     10.771556    -0.000000    0.000000   -0.047078
            66    1       7.899302      0.912133      1.487282    -0.000000   -0.000000    0.047078
            67    0       9.479162      1.824266      3.064709     0.000000    0.000000   -0.000000
            68    0       9.479162      3.648531      9.194128     0.000000   -0.000000   -0.000000
            69    1       9.479162      1.824266      7.616701     0.000000    0.000000    0.047078
            70    1       9.479162      3.648531      4.642137     0.000000   -0.000000   -0.047078
            71    1       9.479162      1.824266     10.771556     0.000000    0.000000   -0.047078
            72    1       9.479162      3.648531      1.487282     0.000000   -0.000000    0.047078
            73    0      11.059023      4.560664      3.064709    -0.000000    0.000000   -0.000000
            74    0      11.059023      6.384930      9.194128    -0.000000   -0.000000   -0.000000
            75    1      11.059023      4.560664      7.616701    -0.000000    0.000000    0.047078
            76    1      11.059023      6.384930      4.642137    -0.000000   -0.000000   -0.047078
            77    1      11.059023      4.560664     10.771556    -0.000000    0.000000   -0.047078
            78    1      11.059023      6.384930      1.487282    -0.000000   -0.000000    0.047078
            79    0       0.000000      7.297063      3.064709     0.000000    0.000000    0.000000
            80    0       0.000000      9.121328      9.194128    -0.000000   -0.000000   -0.000000
            81    1       0.000000      7.297063      7.616701     0.000000    0.000000    0.047078
            82    1       0.000000      9.121328      4.642137    -0.000000   -0.000000   -0.047078
            83    1       0.000000      7.297063     10.771556     0.000000    0.000000   -0.047078
            84    1       0.000000      9.121328      1.487282    -0.000000   -0.000000    0.047078
            85    0      11.059023     10.033461      3.064709    -0.000000    0.000000   -0.000000
            86    0      11.059023      0.912133      9.194128    -0.000000   -0.000000   -0.000000
            87    1      11.059023     10.033461      7.616701    -0.000000    0.000000    0.047078
            88    1      11.059023      0.912133      4.642137    -0.000000   -0.000000   -0.047078
            89    1      11.059023     10.033461     10.771556    -0.000000    0.000000   -0.047078
            90    1      11.059023      0.912133      1.487282    -0.000000   -0.000000    0.047078
            91    0       0.000000      1.824266      3.064709     0.000000    0.000000   -0.000000
            92    0       0.000000      3.648531      9.194128     0.000000   -0.000000   -0.000000
            93    1       0.000000      1.824266      7.616701     0.000000    0.000000    0.047078
            94    1       0.000000      3.648531      4.642137     0.000000   -0.000000   -0.047078
            95    1       0.000000      1.824266     10.771556     0.000000    0.000000   -0.047078
            96    1       0.000000      3.648531      1.487282     0.000000   -0.000000    0.047078
 Energy
     -80527.343691852831
 PlusStress:  xx          yy          zz          yz          xz          xy
        -0.35660    -0.35660     2.65947    -0.00000     0.00000     0.00000
END_CFG

BEGIN_CFG
 Size
    96
 Supercell
        12.671760      0.000000      0.000000
         0.000000     10.894974      0.000000
         0.000000      0.000000     12.270869
 AtomData:  id type       cartes_x      cartes_y      cartes_z           fx          fy          fz
             1    0       1.665890      4.489320      2.988900     0.501688    0.186621    1.906402
             2    0       1.568510      6.362820      9.264050    -0.333621   -0.121188   -0.127104
             3    1       1.429320      4.548520      7.654500     0.729483    0.332637   -0.052814
             4    1       1.720390      6.376110      4.657330    -0.639732   -0.935080   -0.023789
             5    1       1.683640      4.483510     10.832200    -1.315093    1.056787    0.433650
             6    1       1.662630      6.340520      1.584560    -0.215060    0.494071   -0.829540
             7    0       3.236610      7.289870      3.110060     0.629668    0.860465   -0.642838
             8    0       3.076030      9.135690      9.224920     0.688850   -0.552939   -0.090704
             9    1       3.101380      7.250660      7.660460     0.067277    0.549974    0.025700
            10    1       3.203090      9.146590      4.748500    -0.109435   -0.359313   -0.692158
            11    1       3.194470      7.293850     10.774500    -0.413317    0.257750    0.431789
            12    1       3.303750      9.196920      1.542100    -0.797122   -0.750588    0.010179
            13    0       1.666880     10.061700      3.101270    -0.534770    0.060778   -0.022622
            14    0       1.421020      0.960725      9.184390     1.218152   -1.233101    0.764812
            15    1       1.466250      9.953000      7.627090     0.491484    0.619756   -0.371054
            16    1       1.647790      1.137260      4.604950    -0.652854   -0.830543   -0.455163
            17    1       1.462010      9.993030     10.737600     0.037856    0.390591    0.417524
            18    1       1.514800      0.938165      1.351920     0.430945    0.094944    1.853247
            19    0       3.305060      1.841600      3.041390    -1.111495   -0.581987   -0.746509
            20    0       3.079420      3.674690      9.169600     0.726744   -1.060986   -0.344951
            21    1       2.995640      1.762820      7.658840     0.929654    0.805854   -0.701568
            22    1       3.418950      3.556870      4.621940    -1.169247    1.419243   -0.421505
            23    1       3.063160      1.811370     10.729600     0.115774    0.172805    0.054458
            24    1       3.314730      3.596570      1.401910    -0.508617    0.440548    0.275364
            25    0       4.832060      4.657170      2.973940    -0.900158   -1.193096    1.543864
            26    0       4.743090      6.439250      9.198700     0.213700   -0.215412    0.364355
            27    1       4.641660      4.655390      7.679870     0.384763   -0.610647   -1.117530
            28    1       4.849860      6.439040      4.672170    -0.357758   -0.649420   -0.420440
            29    1       4.729740      4.474070     10.717600     0.127998    0.780999    0.069589
            30    1       4.820810      6.433670      1.366760    -0.071973    0.165168    1.106323
            31    0       6.429330      7.267770      3.082610    -1.538144    0.484916   -0.547968
            32    0       6.358620      9.179850      9.203850    -1.792841   -1.449161   -1.175373
            33    1       6.311750      7.318720      7.518880    -0.163579    0.236747    1.285292
            34    1       6.321130      9.016260      4.792790     0.670712    0.539969   -1.012062
            35    1       6.314710      7.339220     10.827900     0.066493   -0.030755   -0.965038
            36    1       6.352830      9.106930      1.617480     0.189545   -0.235846   -1.342123
            37    0       4.828290     10.000100      3.154750    -0.612801   -0.433836    1.487477
            38    0       4.687560      0.941497      9.175480    -0.391896    0.033793   -0.773908
            39    1       4.606800      9.961730      7.611650     0.823589    0.340025    0.356837
            40    1       4.692010      0.874421      4.766900     0.679565    0.341392   -0.305682
            41    1       4.781510     10.119800     10.772300    -0.529596   -0.937558   -0.008942
            42    1       4.913390      0.822144      1.588370    -0.539836    0.841964   -0.804650
            43    0       6.342470      1.809670      3.212610    -0.003937   -0.300353   -0.845447
            44    0       6.297060      3.672750      9.105930    -0.010755   -0.705371    0.509088
            45    1       6.327200      1.760070      7.549600    -0.730606    0.948087    0.106033
            46    1       6.281730      3.673290      4.685850     0.608738    0.444530   -0.039376
            47    1       6.214890      1.782810     10.776200     0.892350    0.824546   -0.708023
            48    1       6.350480      3.572670      1.591780     0.336228   -0.187722   -1.339292
            49    0       7.870300      4.528400      3.064210     1.710782    0.812750    0.205289
            50    0       7.870040      6.388730      9.151840    -0.605796    0.511635   -0.103571
            51    1       7.914740      4.586600      7.534290    -1.160803    0.186995   -0.565258
            52    1       7.901150      6.423300      4.672030     0.285084   -1.371074    0.531077
            53    1       7.861230      4.625560     10.723700    -0.394752   -0.609865   -0.176391
            54    1       7.902400      6.466850      1.338710     0.274705   -1.013677    1.584563
            55    0       9.453780      7.214430      3.127440     0.686991    0.998205   -1.460782
            56    0       9.430310      9.081680      9.069510     0.812261    0.461331    0.179872
            57    1       9.365460      7.246830      7.506800     0.827870    0.359639    0.301509
            58    1       9.586260      9.084430      4.646980    -0.569469   -0.090565   -0.014893
            59    1       9.422340      7.343310     10.719200     0.119781   -0.104830   -0.002194
            60    1       9.544940      9.008100      1.521330    -0.274734    0.407060    0.132450
            61    0       7.923920     10.019900      3.087660     0.723578   -2.293539    0.887826
            62    0       7.858710      0.936295      9.133210     0.574977    0.513758    0.783700
            63    1       7.844090     10.051800      7.559790     0.151683   -0.280144   -0.559009
            64    1       7.969520      0.849770      4.626970    -0.712381    0.393271    1.939267
            65    1       7.981030     10.006100     10.648100    -0.322539    0.448620    1.439823
            66    1       7.845900      0.819556      1.509340     0.303140    1.220273   -0.124853
            67    0       9.423350      1.769610      3.104720     1.545698    0.193856   -1.368415
            68    0       9.395950      3.718260      9.066730     1.031502   -0.526857    1.653810
            69    1       9.485230      1.835120      7.575060    -0.007667    0.253121    0.156814
            70    1       9.538700      3.564080      4.603970    -0.433389    0.991641    0.075966
            71    1       9.414960      1.926460     10.736700     0.096314   -0.100490   -0.514944
            72    1       9.562990      3.560460      1.465520    -0.925367    0.290637    0.362430
            73    0      11.099600      4.534740      3.006730    -0.172159   -0.353341    1.143068
            74    0      11.030900      6.431900      9.170870    -0.896712    0.797244    0.444844
            75    1      11.074900      4.709230      7.645060     0.097632   -1.640549   -0.649809
            76    1      11.080800      6.356950      4.619350    -0.328820   -0.754926    0.928763
            77    1      10.808800      4.699290     10.735500     1.273083   -0.944637    0.395572
            78    1      11.004100      6.336440      1.534750     0.642507    0.484358   -0.490148
            79    0       0.013163      7.171840      3.143940     0.764674    1.221435   -0.910778
            80    0      -0.057155      9.077850      9.151940    -1.427494    0.624930   -0.007521
            81    1      -0.027797      7.158910      7.637540     0.355824    1.096510   -0.301841
            82    1       0.063686      9.050580      4.689580     0.121958    0.264019   -0.416033
            83    1      -0.071107      7.373370     10.740200     0.181346   -0.994118    0.655658
            84    1       0.098178      9.030530      1.600330     0.220939   -0.144816   -0.689937
            85    0      11.166300      9.925600      3.055940    -0.760953    0.876082    0.806228
            86    0      11.093200      1.027040      9.218170    -1.876736   -1.637956   -0.170011
            87    1      11.016900     10.081700      7.546610     0.431644   -0.183871    0.774326
            88    1      11.038000      0.826985      4.671160     0.530073    0.577143   -0.514103
            89    1      10.938400      9.953900     10.801100     0.685303    0.480791   -1.268015
            90    1      11.019800      0.913937      1.549120     0.310877   -0.208161   -0.314048
            91    0      -0.095752      1.943340      3.060400     1.440690   -1.831182   -0.237076
            92    0      -0.046602      3.734960      9.306580    -0.978569   -0.587002   -0.744807
            93    1      -0.062643      1.859750      7.624900    -0.267875    0.970439   -0.132399
            94    1       0.021419      3.708960      4.627920     0.143218    0.061052   -0.193166
            95    1      -0.056310      1.864020     10.820100    -0.147013    0.332138    0.371179
            96    1       0.037735      3.722550      1.414060    -0.197919   -0.507391    0.102157
 Energy
     -80522.078937574362
 PlusStress:  xx          yy          zz          yz          xz          xy
         4.64510    17.75786     8.61592    -6.60219    -4.78126     2.35619
END_CFG

BEGIN_CFG
 Size
    96
 Supercell
        12.630008      0.000000      0.000000
         0.000000     10.924001      0.000000
         0.000000      0.000000     12.407714
 AtomData:  id type       cartes_x      cartes_y      cartes_z           fx          fy          fz
             1    0       1.547530      4.561020      3.071120     0.603662   -0.056780    0.968106
             2    0       1.558890      6.387080      9.163160    -0.050089    0.615829    0.583231
             3    1       1.660220      4.610900      7.672910    -1.346331   -1.042675   -0.715212
             4    1       1.574730      6.375590      4.700320    -0.426820   -0.347517   -0.257049
             5    1       1.593220      4.600080     10.857800    -0.519177   -0.377197   -0.959910
             6    1       1.634710      6.345480      1.387880    -0.435444   -0.201953    0.883353
             7    0       3.104260      7.205410      3.103890     0.700505    0.921581   -0.276393
             8    0       3.173910      9.115460      9.148270     1.394168    0.030929    0.860115
             9    1       3.212170      7.205060      7.541860    -0.566913    0.758383    0.544641
            10    1       3.279830      9.096560      4.685650    -0.937113   -0.700062   -0.296094
            11    1       3.134130      7.304740     10.737800    -0.099257    0.163739    0.018389
            12    1       3.081980      9.009350      1.500390     0.599887   -0.038319   -0.347525
            13    0       1.628020      9.936410      3.085320    -0.813725    0.475570   -0.480253
            14    0       1.668110      0.957740      9.168620    -1.566784   -0.000321    1.002824
            15    1       1.591430     10.065200      7.754810    -0.076628   -0.286695   -2.136301
            16    1       1.657430      0.814641      4.638040    -0.461351    0.401519    0.399835
            17    1       1.647220     10.069500     10.860900    -0.047628   -0.265635   -1.164359
            18    1       1.607830      0.903411      1.583950    -0.719966   -0.621874   -1.033118
            19    0       3.175160      1.805080      3.021090     0.156516   -0.901316    0.680531
            20    0       3.111680      3.659250      9.210290     1.313157   -0.520906    1.583320
            21    1       3.341840      1.826380      7.622550    -1.461576    0.670865   -0.417255
            22    1       3.194440      3.525110      4.608590    -0.526310    0.778410    0.719111
            23    1       3.138290      1.770650     10.823300     0.673175    0.774874   -0.536932
            24    1       3.096780      3.647990      1.563840     0.471404   -0.086126   -1.466818
            25    0       4.717120      4.480050      3.075650    -0.095828    0.717259   -1.215789
            26    0       4.704540      6.338630      9.198440    -0.427428    0.969457    0.997958
            27    1       4.744410      4.517000      7.702960     0.106324   -0.001585   -0.980984
            28    1       4.709470      6.249850      4.595500     0.198590    0.821323    1.128241
            29    1       4.755620      4.622540     10.821100    -0.524811   -0.389242    0.115430
            30    1       4.714680      6.350800      1.572550    -0.002823   -0.130750   -0.794259
            31    0       6.309520      7.273030      3.086380     0.097149   -1.151450   -0.388291
            32    0       6.329660      9.180690      9.175630    -0.386516   -1.171552   -0.499539
            33    1       6.201590      7.232500      7.686250     1.423014    0.644485   -0.500886
            34    1       6.317340      9.075630      4.620970     0.202453    0.466887   -0.299569
            35    1       6.195970      7.350200     10.842200     0.686331   -0.169598   -0.717063
            36    1       6.288800      8.990580      1.498370    -0.360169    0.333997   -1.404446
            37    0       4.727140      9.964670      3.012480     0.104814   -0.671395    0.174644
            38    0       4.852050      1.017010      9.172700    -0.452225   -1.066287    1.113796
            39    1       4.793520     10.088100      7.499150    -0.238375   -0.122244    1.213888
            40    1       4.656830      0.797425      4.582020     0.966005    0.876776    0.439532
            41    1       4.910040     10.071800     10.749600    -1.781132    0.480914    0.099926
            42    1       4.755740      0.819070      1.470460     0.157977    0.828683   -0.129850
            43    0       6.338240      1.801350      3.087950    -1.323837    0.174113   -2.138696
            44    0       6.367030      3.764730      9.261790    -0.260909   -0.739855   -0.570749
            45    1       6.450450      1.957610      7.669550    -0.217686    0.273768   -0.320548
            46    1       6.362820      3.683660      4.474260     0.008992   -0.705517    2.391522
            47    1       6.212890      2.035990     10.890400     0.799770   -0.860644   -0.381858
            48    1       6.298230      3.728560      1.437810    -0.234335   -1.057159   -0.066349
            49    0       7.893940      4.562990      2.984340     1.054781    0.370612    0.226869
            50    0       7.852760      6.393170      9.285870     0.143177    0.513330   -0.235641
            51    1       8.095260      4.632670      7.714570    -1.286087   -0.356973   -0.262267
            52    1       7.947510      6.396800      4.575010    -0.476732   -0.565514    0.579869
            53    1       7.889850      4.501990     10.875600     0.425073    0.936786    0.214706
            54    1       7.871930      6.365020      1.402520     0.059250    0.318096    0.457275
            55    0       9.474090      7.215360      3.007360     0.592733    1.498070   -0.953136
            56    0       9.470720      9.121110      9.227190    -1.659792   -0.176211    0.438274
            57    1       9.427860      7.196260      7.536830    -0.824609    1.208674    0.702218
            58    1       9.395350      9.059740      4.617880     0.313528    0.217233   -1.249042
            59    1       9.367380      7.331700     10.877800     0.621065    0.168764   -0.741525
            60    1       9.507740      9.295350      1.331200    -0.131122   -1.199046    0.522441
            61    0       7.848910      9.976870      2.895920     0.964445    1.118250    2.183537
            62    0       7.929400      1.128960      9.323470    -0.280654   -1.624283   -0.239333
            63    1       7.845470     10.174100      7.662080     0.907274   -0.057828    0.348912
            64    1       7.921670      0.948145      4.517650     0.026105   -1.180192    1.120578
            65    1       7.768110     10.089000     10.817300     1.304506    0.282762   -0.285996
            66    1       7.854220      0.986010      1.414920     0.288866   -0.362951    0.172392
            67    0       9.471550      1.865930      3.035000     0.342897   -0.025656   -1.346213
            68    0       9.545890      3.707310      9.330480     0.019110   -0.185479   -1.192365
            69    1       9.561700      1.828680      7.646340    -0.762958    0.762261    0.588915
            70    1       9.547550      3.658100      4.625750    -0.781748    0.118385   -0.398967
            71    1       9.534090      1.942850     10.888400     0.175409   -0.740902   -0.024956
            72    1       9.435100      3.662270      1.394770     0.450267   -0.007464    0.246569
            73    0      11.038100      4.564550      2.994130     0.762708   -1.567972   -0.086039
            74    0      10.951400      6.494500      9.146230     1.730045   -1.024651    1.307170
            75    1      11.087000      4.614920      7.665740    -0.107325   -0.390852    0.085393
            76    1      10.999500      6.245940      4.580550     0.482596    1.187840    0.429417
            77    1      11.097400      4.705950     10.816100    -0.042585   -0.176785    0.059284
            78    1      11.146400      6.353600      1.417840    -0.925915   -0.223184   -0.217371
            79    0       0.018478      7.183970      3.015830    -0.105874    0.490699    0.030122
            80    0       0.019968      9.126650      9.204360    -0.407560    0.327001    0.320291
            81    1       0.001373      7.360920      7.533840    -0.118234   -0.327247    0.910799
            82    1      -0.069426      9.049720      4.447650     0.578875   -0.137647    2.027299
            83    1      -0.024457      7.341750     10.751900    -0.070399   -0.350725   -0.183810
            84    1      -0.105577      9.044300      1.473310     1.302847    0.110861   -0.388697
            85    0      11.060400     10.052500      3.005420    -1.590556    0.405631   -0.072132
            86    0      11.069500      0.907730      9.212390    -0.977402   -0.276946    0.280113
            87    1      10.939600      9.908580      7.636210     1.232885    0.930301   -0.239751
            88    1      10.974800      0.947202      4.636050     0.464573   -0.519163    0.090426
            89    1      11.064000     10.065000     10.772200    -0.101325   -0.519856    0.348140
            90    1      11.128500      1.040990      1.432880    -0.384765   -0.533621    0.759776
            91    0       0.014611      1.811090      3.153340     0.225160   -0.012587   -0.304746
            92    0      -0.070192      3.567150      9.256900     1.509439    2.192312   -0.839517
            93    1      -0.102689      1.755110      7.589260     1.323904    0.675800    0.222324
            94    1       0.043098      3.659170      4.728750    -0.538098    0.047395   -0.815948
            95    1      -0.038728      1.807280     10.776800     0.853774   -0.275155    0.372615