BEGIN_CFG
Size
96
Supercell
12.70750539866243	0.0	0.0
0.0	10.963401250970373	0.0
0.0	0.0	12.2016296516871
AtomData:	id	type	cartes_x	cartes_y	cartes_z	fx	fy	fz
1	0	1.44169999999999998153	4.54335999999999984311	3.05901999999999985036	2.27901053425292987598	0.20352566347178999151	-0.40880830913543997340	
2	0	1.55976000000000003531	6.34250000000000024869	9.21527000000000029445	0.00503704574730999988	-0.23398960768731000281	0.35058599336871998364	
3	1	1.58037000000000005251	4.45807000000000019924	7.62418999999999957851	-0.09943132477702999739	0.72193391710926002602	0.36621133847586001542	
4	1	1.69876999999999989122	6.43569999999999975415	4.57566999999999968196	-0.71581308891133998973	-0.57128483427216003587	0.42250822678460997484	
5	1	1.53516999999999992355	4.43163000000000018019	10.79299999999999926104	0.22610286062830001197	0.78165702752212995463	-0.42784684471653999793	
6	1	1.53872999999999993115	6.33819999999999961204	1.47429999999999994387	-0.18850246830111999641	0.51822539436263004298	0.29662170615970001597	
7	0	3.25348000000000014964	7.28695999999999965979	2.97122000000000019426	-1.77544910441185010974	0.53930211156398000227	0.64013385701657998794	
8	0	3.15256999999999987239	9.10987000000000080036	9.30666000000000082082	0.57538420300866999213	1.47428147842311996207	-1.30321274228687000729	
9	1	3.16547000000000000597	7.37162000000000006139	7.66335000000000032827	-0.18588460167692999470	-0.75337607467500000702	0.26185792725543999282	
10	1	3.13120999999999982677	9.10369000000000028194	4.55022999999999999687	0.52172116823020997511	0.35653995582344000237	-0.01514012634091000016	
11	1	3.11199000000000003396	7.33230999999999966121	10.74119999999999919282	0.29553154378807999780	-1.26949872881961001170	1.22860017005757993225	
12	1	3.26472000000000006636	9.13170999999999999375	1.44538000000000010914	-0.51301745148184996204	-0.12702294583973999798	-0.35936776744825998930	
13	0	1.57845999999999997421	10.02769999999999939178	2.96921999999999997044	-0.31675880350121998763	0.11881449516872000238	0.86230713376168000028	
14	0	1.57590000000000007851	0.91666300000000000558	9.21929000000000087311	-0.62661992137193001096	-0.00832902816152999992	0.43014607199143001237	
15	1	1.65697000000000005393	9.97775000000000034106	7.72944999999999993179	-0.48358194078334998389	0.69188967849057003701	-0.80253666096124998131	
16	1	1.40310000000000001386	0.87692899999999995853	4.57481000000000026517	1.29909268995695992288	0.23606251972698000241	-0.50615424742531001101	
17	1	1.53954999999999997407	10.08109999999999928377	10.87700000000000066791	0.11892081737522999796	-0.13259878212233999761	-0.52691528827048994543	
18	1	1.62945999999999990848	0.91769199999999995221	1.38538000000000005585	-1.05345554344915992573	0.00624594456878000033	0.30243827226684000253	
19	0	3.11853999999999986770	1.82533999999999996255	3.01203000000000020719	-1.05355415551125997098	-0.16759976458955999634	-0.33841336927289000780	
20	0	3.20637000000000016442	3.59404000000000012349	9.21578000000000052694	-0.89046797415913003793	0.95902577701100999441	-0.56139758630563996178	
21	1	3.16410999999999997812	1.81200000000000005507	7.64222999999999963450	0.09492063584382999519	-0.24910140640462999362	-0.05189159692662000112	
22	1	3.13334000000000001407	3.57224999999999992539	4.57976999999999989654	-0.45837733104250999450	0.92713647472902005475	0.20751311931765001328	
23	1	3.15816000000000007830	1.82216000000000000192	10.78999999999999914735	0.02802642843720999991	-0.20024413469089999418	0.14822036858703999118	
24	1	3.20084999999999997300	3.69552000000000013813	1.46758999999999995012	-1.22924293031908993257	-0.27031244649670999047	-0.15106412778591998824	
25	0	4.70246000000000030639	4.60224000000000010857	3.01399999999999979039	0.55935685843742999346	-0.73014950425270996881	1.66475477469301003097	
26	0	4.76625999999999994117	6.38740000000000041069	9.23315000000000019043	-0.39845097451784000642	0.38074729565400000642	-0.61854650518485998489	
27	1	4.76238999999999990109	4.68130999999999986017	7.56981000000000037176	-0.30179650858152001769	-1.04997128293845998215	0.60620660692693995042	
28	1	4.70598000000000027399	6.43419999999999969731	4.64458000000000037488	0.46276220342824997411	-0.48403515810067998526	-0.16637716886382999948	
29	1	4.73287000000000013245	4.49587000000000003297	10.80550000000000032685	0.52927955186030994916	0.50802280613116002073	-0.51135084370945005361	
30	1	4.77066000000000034476	6.36652000000000040103	1.48892000000000002125	0.76144315920940996989	0.30602390630997999832	-1.05731577422369005248	
31	0	6.36385000000000022879	7.28329000000000004178	3.09131000000000000227	-0.90707611893961004323	0.64227412144672002547	1.24858733395129006816	
32	0	6.28833999999999981867	9.11414000000000079638	9.14117000000000068383	1.60962361134093989712	-0.11121653006892000259	0.36736215461879001554	
33	1	6.26485999999999965127	7.32770000000000010232	7.42485999999999979337	0.12120899986315999963	-0.16347175975646999202	1.77047949781233993072	
34	1	6.40404000000000017678	9.21062000000000047351	4.71741000000000010317	-0.85899640273446997707	-0.68497142017979995021	-0.72434472880970002251	
35	1	6.33462000000000013955	7.28225999999999995538	10.83130000000000059401	0.18911572687239999735	0.02393543844038999863	-1.28040052924595992856	
36	1	6.44228999999999984993	8.99488999999999983004	1.47510999999999992127	-0.43052341925677001244	1.10036321994613994768	0.11475521102402999607	
37	0	4.79349000000000025068	10.04940000000000033253	3.02428000000000007930	-0.12395756154560000351	-0.67086564006103999169	0.00361020191256000017	
38	0	4.77172000000000018360	0.93852599999999997138	9.24150000000000027001	-0.44993048952814002073	-0.42596352086881000831	-0.50214361011289998515	
39	1	4.78225999999999995538	10.10440000000000004832	7.61955000000000026716	-0.90625044413038002844	-0.33648805888464000668	0.29348789508465000786	
40	1	4.61655999999999977490	0.90220100000000003071	4.51576000000000021828	1.02582113040783995395	-0.08153326191889999353	1.01393826338622994321	
41	1	4.80740000000000033964	10.05090000000000038938	10.72439999999999926672	-0.10343259865682999377	-0.05411441314433999838	1.03306096118768997449	
42	1	4.55189000000000021373	0.87326700000000001545	1.40348999999999990429	1.94255246603696996033	0.23774355010708000946	0.17275813205302001374	
43	0	6.29377999999999993008	1.83540999999999998593	3.02647000000000021558	-0.44941023764480997338	-1.21550405681933004765	-1.21645844414332993111	
44	0	6.31400999999999967827	3.61161999999999983046	9.12823000000000028820	0.41573518545007998037	1.10919175590643992457	-0.06793161577586000199	
45	1	6.28354999999999996874	1.80414999999999992042	7.62713000000000018730	0.03861046728513999743	0.01491782666261999915	-0.67685437835299000486	
46	1	6.19683999999999990393	3.49951999999999996405	4.59754000000000040416	0.32560160530700998915	1.55452532569278001340	0.70377441560095999051	
47	1	6.36791999999999980275	1.89734000000000002650	10.78369999999999961915	-0.06777103915495999442	-0.47082153295223000411	-0.07552369382675999665	
48	1	6.34023999999999965382	3.73221999999999987097	1.52835999999999994081	-0.11209023553862000611	-0.72749286061278994886	-0.88529513771224999097	
49	0	7.87481000000000008754	4.52512000000000025324	3.11975999999999986656	0.60151940872415998740	0.41105545650614000452	1.22762534708196002775	
50	0	7.86343999999999976325	6.35510999999999981469	9.06467999999999918259	-0.92153790306371996532	-0.85265111672700999446	-0.86090416782903000925	
51	1	8.00507999999999952934	4.43384999999999962483	7.43885000000000040643	-0.81716371105410001707	0.48797983615474999075	1.26616202389621990143	
52	1	7.92478999999999977888	6.36650000000000027001	4.64566999999999996618	-0.02919585256564000142	0.08819235047262999339	0.61541431456338002715	
53	1	7.97508999999999979025	4.50218999999999969219	10.61519999999999974705	-1.11280278601897997248	0.46216374676825000556	0.80673372179586000374	
54	1	7.97672000000000025466	6.42696000000000022823	1.65982000000000007311	0.03480855910442000323	-0.72270019372684002334	-1.58397178279388994859	
55	0	9.54588999999999998636	7.38555000000000028137	3.13119000000000013983	-0.39658769361034001966	-0.96502733749803004670	2.41496140888667021329	
56	0	9.45466000000000050818	9.09746999999999950148	9.17764000000000024215	-0.04548835922985999813	-0.10971179533052999311	-0.96150519775155995905	
57	1	9.51354000000000077364	7.24913999999999969504	7.61568999999999984851	0.24220875551591999897	0.23609490275458000497	-0.15831435968540999437	
58	1	9.49192999999999997840	9.23569999999999957652	4.75807000000000002160	0.40727325685699999891	-0.12462973479481999350	-0.77522320347274997765	
59	1	9.31147999999999953502	7.15263999999999988688	10.62160000000000081855	0.97267547710042001619	1.44931145039061992641	1.98240430840026005122	
60	1	9.56836000000000019838	9.07093000000000060368	1.58366999999999991111	-0.48260685230710997917	1.11349107851820994242	-1.35462934493865994057	
61	0	7.93309999999999959641	9.99261000000000088050	3.09801999999999999602	0.49103166490474997596	1.07089525760423009970	0.74682349502200995328	
62	0	7.89834000000000013841	0.93814900000000001068	9.14683999999999919339	0.30482282225800000353	0.00478613589015000011	0.58577101155045996350	
63	1	7.87424999999999997158	10.07840000000000024727	7.56625000000000014211	0.14061921622421999500	-0.36574018183774997803	0.44022755613825997889	
64	1	7.89381000000000021544	1.04967999999999994643	4.65709000000000017394	0.04176757851705999863	-1.08255485873503998207	-0.44876155067009998456	
65	1	7.97993000000000041183	10.15279999999999915872	10.73590000000000088676	-0.93344267530205005112	-1.07280758799614006627	-0.07445556426251000171	
66	1	8.03097999999999956344	0.81613000000000002210	1.57969000000000003858	-0.94113253705330002230	0.83185337078607002326	-0.82662772195277001153	
67	0	9.55067000000000021487	1.85390999999999994685	3.08794000000000012918	0.14965130238204998880	-0.37006078908153000606	1.11757314852926992188	
68	0	9.50112999999999985334	3.55250000000000021316	9.16999000000000030752	0.18188430470759001101	0.14997683801416999971	-0.64928547042230000397	
69	1	9.45585999999999948784	1.76810000000000000497	7.52585000000000015064	0.63767783662903998465	-0.17464001726888001009	0.63177132611952002694	
70	1	9.54016000000000019554	3.62008000000000018659	4.71168999999999993378	-0.21737700386421998644	0.50563035502038999880	-0.36925436131416000674	
71	1	9.48620999999999980901	1.79841000000000006409	10.85660000000000025011	0.19190580645836999296	-0.30563442865188999997	-1.36771255974891992047	
72	1	9.50845999999999946795	3.72515999999999980474	1.63539999999999996483	-0.24116975650922001240	-0.23446945649320999339	-1.35010836755256002917	
73	0	11.07779999999999986926	4.67009000000000007446	3.11508999999999991459	-0.33397586276029000985	-0.45830349212823001670	1.53188852823447008156	
74	0	11.09259999999999912745	6.38220999999999971664	9.30644999999999988916	-0.79384866170158996379	-0.60387250220702004544	-2.03189970077580017715	
75	1	11.03379999999999938609	4.51651000000000024670	7.67821999999999960096	0.30722600202250999191	0.91794763303675996902	-0.67415868467276995890	
76	1	11.05020000000000024443	6.50837999999999983203	4.81700999999999979195	0.42680337822224001521	-0.53906766846318998621	-0.87379252127443995946	
77	1	11.02009999999999934062	4.52491000000000020975	10.77749999999999985789	0.03495379585844000242	-0.00920919540740000077	0.45149310389974001145	
78	1	11.02919999999999944862	6.49723000000000006082	1.58244000000000006878	0.68501138736286004693	-0.49413290344607002647	-0.65152858192486995392	
79	0	-0.04753799999999999693	7.29556000000000004491	3.16550000000000020250	0.35903834757609998096	-0.06504828801400000526	-0.31831046111939997889	
80	0	0.03722980000000000039	9.10355999999999987438	9.21657000000000081741	-0.99932320702049004524	-0.03875729633274999780	0.98469440263674001823	
81	1	-0.02639199999999999879	7.28155999999999981043	7.73831999999999986528	0.06266363196131999325	-0.29416459134430000821	-0.90452117075417004521	
82	1	-0.05899499999999999883	9.16470999999999946795	4.63907999999999987040	0.73134080915423005376	0.11523946035352000683	0.04935511629874000245	
83	1	-0.07431939999999999380	7.26093999999999972772	10.86120000000000018758	0.74251730882263000666	0.25956169730790001893	-0.25225948269565001691	
84	1	-0.06882810000000000317	9.03420999999999985164	1.59786999999999990152	0.25208762280127000599	0.55647848114311004863	-1.41641441919953003925	
85	0	11.10260000000000069065	10.10069999999999978968	3.06130000000000013216	-0.23413936710183999579	-0.54154611631064997201	1.40398022416808010426	
86	0	11.08740000000000058833	0.85155099999999994687	9.14825000000000088107	-0.69169035247054999616	1.22669119612589994084	0.90482434626644003828	
87	1	11.11539999999999928093	10.01030000000000086402	7.66000000000000014211	0.10242123841146999474	-0.53269562657153002316	-0.69808567196633997121	
88	1	11.23489999999999966462	0.93385399999999996190	4.64803000000000032799	-0.99307187385989004191	0.33458641168149000356	-0.31327536813193002097	
89	1	11.03059999999999973852	9.96066000000000073555	10.66949999999999931788	0.58398255225566997328	0.36822018168828002382	1.08466109743178007463	
90	1	11.09839999999999982094	0.95130300000000000971	1.52207000000000003403	-0.46391710056516000105	-0.38233553678551002175	-1.37270801864230995726	
91	0	-0.06751189999999999969	1.88189999999999990621	2.95554000000000005599	0.98890930663299003722	0.00669443815292000005	1.50871920769534995088	
92	0	-0.11182100000000000373	3.67233000000000009422	9.19261999999999979138	1.38107528456046990684	-1.24769207828964989737	0.32190048083468997264	
93	1	-0.04281030000000000252	1.84128000000000002778	7.59999999999999964473	0.17508246782060998825	-0.28218122375470000573	0.45502354004822997968	
94	1	-0.02215599999999999861	3.70012000000000007560	4.68222999999999967002	-0.53755214439776000113	-0.34926517517467997598	-0.45136776515035997859	
95	1	-0.13551799999999999957	1.88866000000000000547	10.81339999999999967883	0.49961364260827001438	-0.75695244235808001321	-0.87900610845076998512	
96	1	-0.19533600000000000962	3.73127999999999993008	1.46392000000000011006	0.73043471216171995675	0.15657242640929000532	-0.18855463880212000594	
Energy
-80522.88139950179902371019
PlusStress:	xx	yy	zz	yz	xz	xy
-3.55087038700813906189	3.92448410511347933749	11.89212255491599101731	-1.54797605912280533680	8.60073388508522818086	0.46033169410974217328
END_CFG

BEGIN_CFG
Size
96
Supercell
12.649584133035383	0.0	0.0
0.0	11.015270205831866	0.0
0.0	0.0	12.379028958745756
AtomData:	id	type	cartes_x	cartes_y	cartes_z	fx	fy	fz
1	0	1.63358000000000003205	4.57958999999999960551	3.15334000000000003183	-0.36161681917540999809	0.18143608858936000061	0.42631801892552001476	
2	0	1.59382000000000001450	6.33940999999999998948	9.18023999999999951172	-0.65940414335047004002	1.19555032273722994240	-0.48378224675339998040	
3	1	1.46577000000000001734	4.49401999999999990365	7.70711999999999974875	0.62407803696176000763	-0.15263514793283000648	-0.42652253014824997868	
4	1	1.78011999999999992461	6.50056000000000011596	4.76830999999999960437	-0.89550784043790998545	-0.37365575858999999781	-1.68072278223590010349	
5	1	1.60790999999999995040	4.64222000000000001307	10.79899999999999948841	-0.48604921014803997847	-0.98505631645853997114	0.61773053438100000712	
6	1	1.65490000000000003766	6.32791000000000014580	1.50775999999999998913	-0.93831615893660003103	0.17985956470563999043	-0.66671458404854999635	
7	0	3.16988000000000003098	7.35721000000000024954	2.92408000000000001251	0.82447329944822000947	0.29396059373271998805	0.60786319330397997618	
8	0	3.15378999999999987125	9.14284999999999925535	9.10374999999999978684	-1.04749312172627995210	0.16528979086893999528	1.20068773505496007026	
9	1	3.28281000000000000583	7.31639999999999979252	7.64794000000000018247	-1.24829209512753003253	-0.59096547079049999152	-1.02520568278369994530	
10	1	3.15586000000000010957	9.11330000000000062244	4.56601000000000034618	0.17993039202763999596	0.59632037004602000962	0.12147885909120000048	
11	1	3.10521000000000002572	7.33629999999999959925	10.72139999999999915303	0.24220096685959999205	0.05021373713650999909	0.34075607874755997617	
12	1	3.17002000000000005997	9.30719000000000029615	1.44847999999999998977	-0.44889599474838998150	-0.58814091856233996491	-0.15949161903796998940	
13	0	1.58326999999999995516	10.16300000000000025580	3.09080999999999983530	0.13220422032393999712	0.02117365551806999965	-1.51197222594604996360	
14	0	1.50655000000000005578	0.84401700000000001722	9.08320999999999934005	0.27292743948117997865	0.52456522032687002977	0.18404500602609999427	
15	1	1.47517999999999993577	10.04039999999999999147	7.50844000000000022510	0.27483038402507997677	-0.41447192687169998049	0.66630215098553002839	
16	1	1.61261999999999994237	0.92698999999999998067	4.67145000000000010232	0.57170809478414996718	0.14554773337032000935	-0.11454287001193000362	
17	1	1.47324000000000010502	10.07879999999999931504	10.68539999999999956515	1.00993791709075009244	-0.25325891979749998173	0.34513904748614998574	
18	1	1.59624000000000010324	1.14102999999999998870	1.47565999999999997172	-0.25779664470231000717	-1.56968547235831001885	0.09446268791127999942	
19	0	3.20998999999999989896	1.88332000000000010509	3.00400000000000000355	0.45255744817148002568	-1.40389105153363002998	0.18575837145612000834	
20	0	3.09005999999999980687	3.57869999999999999218	9.26745000000000018758	0.92344225341242003324	1.14465710557413991033	-1.24386975733252991283	
21	1	3.15149999999999996803	1.81976000000000004420	7.55165000000000041780	-0.06736520553001999756	-0.12861459802851998857	0.62214683386878000260	
22	1	3.27484000000000019526	3.56437999999999988177	4.59971999999999958675	-0.17543362352351998812	1.10260663829572003181	0.83023031918479994751	
23	1	3.04145000000000020890	1.76824000000000003396	10.68699999999999938893	0.52096944287386004468	-0.96172355336311998730	0.79782475044806000497	
24	1	3.04516000000000008896	3.72142999999999979366	1.44616999999999995552	1.21990140453547990518	-0.15034580737000000084	0.39103195055936001978	
25	0	4.77850000000000019185	4.56967999999999996419	3.05211999999999994415	-0.39405004137687998922	-0.49672449515620997751	-1.86166876276698989301	
26	0	4.69852999999999987324	6.33539999999999992042	9.21283999999999991815	0.38308183308700000103	0.82407687687467001680	1.42878879617566001414	
27	1	4.73878000000000021430	4.53199000000000040700	7.71422000000000007702	-0.67024708595823001556	-0.36560729459757002058	-0.40998733313780999499	
28	1	4.77571999999999974307	6.47799999999999975842	4.39750999999999958590	0.32602493974993002057	-0.12126361014924000314	1.46902433652114994267	
29	1	4.75921000000000038455	4.47428999999999987836	10.88320000000000042917	-1.37442085750700004887	0.72156393950741004595	0.04579549232766000344	
30	1	4.80147999999999974818	6.39407999999999976382	1.35373000000000009990	-0.37875030777613999389	-0.17121698828793999181	0.08285798799117999325	
31	0	6.39374999999999982236	7.29344000000000036721	2.87510000000000021103	-0.15040072356810998966	0.73397147861908995647	0.89930843372794000423	
32	0	6.37131000000000025096	9.10970999999999975216	9.14367999999999980787	-0.85201461825018998120	1.02114261164360997647	0.53783706699046995858	
33	1	6.25907000000000035556	7.32800000000000029132	7.66901000000000010459	0.47577861564731999122	-1.25975774102053006409	-0.57009151407554004010	
34	1	6.30436999999999958533	9.11771000000000064745	4.50985000000000013642	0.08826687338503000357	-0.17408284576301999436	0.60933671240841003058	
35	1	6.14859000000000044395	7.45462999999999986755	10.80439999999999933777	0.79954587998138004767	-1.34350328560982990034	0.19335320781809001156	
36	1	6.43843000000000031946	9.25413999999999958845	1.44182000000000010154	-0.85095980234019996669	-0.43991048607035998508	-0.25181034792177997561	
37	0	4.74695999999999962427	10.12209999999999965326	3.02360000000000006537	0.08375373750426000352	-1.47730042783278991969	0.36824944343382998158	
38	0	4.74657000000000017792	0.90555499999999999883	9.17562999999999995282	-0.32519496755998000825	-0.31939892532322999852	0.29759303747608001345	
39	1	4.76482000000000027740	10.06049999999999933209	7.67393000000000036209	0.08717053076651000432	0.42633229749382001161	-1.25058439967053991460	
40	1	4.75227999999999983771	0.87182199999999998585	4.63583000000000033936	0.08614009388118000488	0.20445978791826999177	-0.28156744101279002068	
41	1	4.75964999999999971436	9.96624000000000087596	10.69330000000000069349	-0.33302376305176001337	0.96721552191685999933	0.15473729201138999856	
42	1	4.84665000000000034674	0.74494499999999996831	1.41917000000000004256	-0.64171197235957999627	1.85328438788419003203	-0.15366343309749000423	
43	0	6.36969999999999991758	1.71059000000000005492	3.03745999999999982677	-0.09065769153168000416	1.02258724358931996079	0.50952110723534005388	
44	0	6.25731999999999999318	3.68225999999999986656	9.32602999999999937586	0.81093902371843995525	-2.25665677999407021659	0.24489218990444000523	
45	1	6.33567999999999997840	1.92300000000000004263	7.59454999999999991189	-0.16707908345965999386	-0.63900475652416000028	1.00440369207090007819	
46	1	6.43543000000000020577	3.66510999999999986798	4.53305999999999986727	-0.85695292051913996012	-0.61490882181951000973	0.71588388875859998439	
47	1	6.33058000000000031804	1.67571000000000003283	10.86829999999999962768	-0.15379116072456999742	0.55843391716145995840	-1.04809113491381999950	
48	1	6.29293999999999975614	3.49129999999999984794	1.48334000000000010289	0.22717819615373999187	0.68889073980094994720	-0.34458261372144999291	
49	0	7.93240999999999996106	4.52543999999999968509	2.96939999999999981739	0.50856031125393996728	-0.01034736518177000082	-0.43369360564986997320	
50	0	7.78798000000000012477	6.33330999999999999517	9.32671999999999989939	0.40435152370325000426	2.86598733425973994926	-1.52782812991891003840	
51	1	7.71694999999999975415	4.52921999999999957964	7.77561999999999997613	1.56506948395655998141	0.46088770606223999904	-0.66342865944953000046	
52	1	7.90962000000000031719	6.34717000000000020066	4.57483000000000039620	-0.65337255240197000816	-0.12728177942519000587	-0.06812338346061999617	
53	1	7.82052999999999975955	4.72970000000000023732	10.88659999999999961062	0.06660221448262999833	-2.08057268556347008115	1.20229030199770003939	
54	1	7.93921999999999972175	6.30583000000000026830	1.37680000000000002380	0.23123802664692999498	0.14121354585647000190	-0.10518595770958000246	
55	0	9.45608000000000004093	7.22986000000000039734	3.04903000000000012903	-0.34474009048942000355	1.83076447009872000926	0.99191573608598004874	
56	0	9.41910000000000025011	9.15202999999999988745	9.10326000000000057355	0.56891325680862003811	0.10745733225492000440	0.32618192311768001712	
57	1	9.44383000000000016882	7.18702000000000040814	7.71459000000000028052	-0.16513178101702000178	-0.11296370442243999777	0.04340611476634000099	
58	1	9.41700999999999943668	9.10091000000000072134	4.64400000000000012790	0.51848186965040998775	-0.04018654908384999835	-0.55028323962575997896	
59	1	9.38931000000000004491	7.43841000000000018844	10.80920000000000058549	0.41377439918199998559	-0.77006113760858996287	-0.19987286140657001265	
60	1	9.44801999999999964075	9.07328000000000045588	1.45148000000000010346	-0.09006057652302000560	0.46276521896115002663	0.47065241047488998172	
61	0	7.89777000000000040103	10.12579999999999991189	3.07460000000000022169	1.40403345973183002471	-1.07316306036763009502	-0.27845226430323000155	
62	0	7.87661000000000033339	0.80441799999999996640	9.17418999999999940087	-0.00985764951294999976	1.02475899156936001155	0.00076003527070000001	
63	1	7.83012999999999959044	10.01859999999999928377	7.44149999999999955946	0.60170323713415996281	0.34145026546242002174	0.99981253417431004138	
64	1	8.01398999999999972488	0.91777799999999998271	4.63645999999999958163	-0.80807542261423004337	-0.10410297144600999530	0.66305122754179002253	
65	1	7.92787000000000041666	10.01430000000000042348	10.74360000000000070486	-0.25569628908221997410	0.10692978368672000078	-0.18276839056009000495	
66	1	8.00531999999999932527	0.88551500000000005208	1.51341999999999998749	0.12179930696535999635	0.31999561434377998825	-0.21689953869928998986	
67	0	9.54613999999999940371	1.84882999999999997343	3.13344999999999984652	0.50617239781889000749	-0.42409377080550997308	-1.28592709050262010706	
68	0	9.42906999999999939632	3.66983000000000014751	9.35684000000000004604	-0.89002822416454996368	-0.28477791996251999862	0.25209355260449001213	
69	1	9.48515000000000085834	1.94225000000000003197	7.74781999999999992923	-0.45868503220158002298	-0.79620442786570999605	-0.63808568937884002636	
70	1	9.47080000000000055138	3.75153999999999987480	4.65723000000000020293	0.31507237342885002773	-0.47899764749645001860	-0.25604760508224000404	
71	1	9.45922999999999980503	1.69293999999999988937	10.84299999999999997158	-0.22687608992863000923	0.52633546480491999464	-0.52117149579433996731	
72	1	9.57301999999999964075	3.57283000000000017238	1.38661999999999996369	0.01310750630028999913	0.51987649150719994484	1.31060190839704993060	
73	0	11.12439999999999962199	4.62105999999999994543	3.12666999999999983828	-0.88372738154019003787	-1.22022508441264010415	-0.95494223506086994835	
74	0	11.04770000000000074181	6.31186000000000024812	9.33295999999999992269	-1.09894742141961998527	0.51136577189543996891	-1.37789898307690994450	
75	1	10.99489999999999945146	4.48958999999999974762	7.78228000000000008640	0.10211541446081999485	0.35287417964478001720	-0.26375207581735998774	
76	1	11.19270000000000031548	6.38077999999999967429	4.58990999999999971237	-0.42349564858453997429	1.23421681091790991225	0.77662334226215001820	
77	1	11.04030000000000022453	4.51313000000000030809	10.91329999999999955662	0.12539975364028999039	-0.01334070085516999953	0.32331477754778997769	
78	1	10.95260000000000033538	6.51137000000000032429	1.54777999999999993364	2.29950154500428993742	-1.39939793925333999525	-1.37134255644989000444	
79	0	0.08560389999999999666	7.37220000000000030838	3.00719000000000002970	-0.27860158553093999911	-0.76285486287209003375	0.86855829104458004419	
80	0	-0.05590780000000000055	9.08605000000000018190	9.22917999999999949523	-0.39319069586974997321	0.82851324172671003687	-1.79173890304984007038	
81	1	-0.07143280000000000463	7.23904000000000014126	7.65430000000000010374	0.06493382118903999467	-0.17414809397260999635	0.18589316509698999846	
82	1	0.02644739999999999938	9.16981999999999963791	4.58229000000000041837	-0.31524946801346998004	-0.02353743894614000048	0.09891154785562999985	
83	1	-0.04100480000000000097	7.26541000000000014580	10.71030000000000015348	0.88929642797997998649	0.17872819271561998788	1.67680969832154991295	
84	1	0.03038120000000000057	9.18554999999999921556	1.44306000000000000938	0.17617167909862999076	0.17201232824220000217	-0.00066365214030999998	
85	0	11.04879999999999995453	10.03459999999999929798	2.98742000000000018645	0.28058854681077000093	-0.57594548045611004827	0.92137946611703003263	
86	0	11.07549999999999990052	0.91234899999999996556	9.20298999999999978172	-0.91867384464098000851	-0.05931872698744000000	-0.80631493254066999299	
87	1	11.05869999999999997442	10.05230000000000067928	7.58295999999999992269	-0.09785003356671000130	0.13177263897106000767	0.38859108871119002471	
88	1	11.11069999999999957652	0.74504999999999999005	4.64179000000000030468	-0.23767409595225000296	0.83002922686530000718	0.10516762982178000374	
89	1	10.99230000000000018190	10.18750000000000000000	10.71920000000000072760	0.11157881360016000394	-1.73717256388444996063	0.39264318009560000844	
90	1	11.13460000000000071907	0.86700600000000005441	1.50872999999999990450	-0.23679878991635999741	0.52762537445673995951	0.24535964667931001171	
91	0	0.03837259999999999976	1.82919999999999993712	3.14604000000000016968	-0.57056535102381000790	-0.34030287361064998075	0.19730924473610000902	
92	0	-0.04545500000000000235	3.56520999999999999019	9.31431000000000075545	0.04266813663241000171	1.40667925998216003514	-0.28109960658566002234	
93	1	-0.09853530000000000622	1.90020999999999995467	7.62173000000000033793	0.41830287584728997885	-0.60085599009737000742	-0.37789596783545997827	
94	1	0.03438920000000000171	3.64632999999999984908	4.77207000000000025608	-0.03480420986437000180	0.24947144216556998986	-0.59918188593544996490	
95	1	-0.01650460000000000121	1.72282000000000001805	10.75530000000000008242	0.40932519378433002144	-0.10722319322960000010	0.77737241843607995939	
96	1	-0.00870307000000000025	3.61623999999999989896	1.64965999999999990422	0.44172548826606000683	0.81400705784984994651	-0.97458747478785001661	
Energy
-80522.15622940870525781065
PlusStress:	xx	yy	zz	yz	xz	xy
1.62300019497557745929	1.15831681127384311658	14.34641759579647413148	-1.07265211416351124996	-4.36783026114539030260	1.92191871852660356446
END_CFG

BEGIN_CFG
Size
96
Supercell
12.658339334446524	0.0	0.0
0.0	10.961362458911367	0.0
0.0	0.0	12.224825472288938
AtomData:	id	type	cartes_x	cartes_y	cartes_z	fx	fy	fz
1	0	1.54048000000000007148	4.52393999999999962824	3.07599000000000000199	-0.21839886223991999969	0.45861064055243000448	-0.28755184264374000769	
2	0	1.62783999999999995367	6.42173999999999978172	9.18366999999999933380	-1.40094223276095997122	-0.87774393655460003494	-0.27491204034312000104	
3	1	1.39891999999999994131	4.49554000000000009152	7.62516999999999978144	1.49480763627668000737	0.64905175152690997020	0.42267746198840999705	
4	1	1.52300999999999997492	6.34375999999999962142	4.61066000000000020265	0.65357135376289998696	0.27551475233944000554	0.10665024858732000124	
5	1	1.55224999999999990763	4.56202000000000040814	10.81520000000000081286	-0.11335870770681000241	-0.07849542698370999549	-0.80439842573429998218	
6	1	1.43297999999999992049	6.33232000000000017081	1.43310000000000004050	1.01196243561478005368	-0.01270454599202999919	0.72839112151407003903	
7	0	3.16611000000000020194	7.32451000000000007617	3.03061999999999986954	-1.18236493692103006303	-0.71123653360225003173	-0.15826957056001000890	