BEGIN_CFG
 Size
    96
 Supercell
        12.638883      0.000000      0.000000
         0.000000     10.945594      0.000000
         0.000000      0.000000     12.258838
 AtomData:  id type       cartes_x      cartes_y      cartes_z           fx          fy          fz
             1    0       1.579860      4.560664      3.064709     0.000000    0.000000    0.000000
             2    0       1.579860      6.384930      9.194128     0.000000   -0.000000   -0.000000
             3    1       1.579860      4.560664      7.616701     0.000000    0.000000    0.050019
             4    1       1.579860      6.384930      4.642137     0.000000   -0.000000   -0.050019
             5    1       1.579860      4.560664     10.771556     0.000000    0.000000   -0.050019
             6    1       1.579860      6.384930      1.487282     0.000000   -0.000000    0.050019
             7    0       3.159721      7.297063      3.064709    -0.000000    0.000000    0.000000
             8    0       3.159721      9.121328      9.194128    -0.000000   -0.000000   -0.000000
             9    1       3.159721      7.297063      7.616701     0.000000    0.000000    0.050019
            10    1       3.159721      9.121328      4.642137     0.000000   -0.000000   -0.050019
            11    1       3.159721      7.297063     10.771556     0.000000    0.000000   -0.050019
            12    1       3.159721      9.121328      1.487282    -0.000000   -0.000000    0.050019
            13    0       1.579860     10.033461      3.064709     0.000000    0.000000   -0.000000
            14    0       1.579860      0.912133      9.194128     0.000000   -0.000000   -0.000000
            15    1       1.579860     10.033461      7.616701     0.000000    0.000000    0.050019
            16    1       1.579860      0.912133      4.642137     0.000000   -0.000000   -0.050019
            17    1       1.579860     10.033461     10.771556     0.000000    0.000000   -0.050019
            18    1       1.579860      0.912133      1.487282     0.000000   -0.000000    0.050019
            19    0       3.159721      1.824266      3.064709    -0.000000    0.000000   -0.000000
            20    0       3.159721      3.648531      9.194128    -0.000000   -0.000000   -0.000000
            21    1       3.159721      1.824266      7.616701     0.000000    0.000000    0.050019
            22    1       3.159721      3.648531      4.642137    -0.000000   -0.000000   -0.050019
            23    1       3.159721      1.824266     10.771556     0.000000    0.000000   -0.050019
            24    1       3.159721      3.648531      1.487282     0.000000   -0.000000    0.050019
            25    0       4.739581      4.560664      3.064709    -0.000000    0.000000   -0.000000
            26    0       4.739581      6.384930      9.194128    -0.000000   -0.000000   -0.000000
            27    1       4.739581      4.560664      7.616701    -0.000000    0.000000    0.050019
            28    1       4.739581      6.384930      4.642137    -0.000000   -0.000000   -0.050019
            29    1       4.739581      4.560664     10.771556    -0.000000    0.000000   -0.050019
            30    1       4.739581      6.384930      1.487282    -0.000000   -0.000000    0.050019
            31    0       6.319442      7.297063      3.064709     0.000000    0.000000   -0.000000
            32    0       6.319442      9.121328      9.194128     0.000000   -0.000000   -0.000000
            33    1       6.319442      7.297063      7.616701     0.000000    0.000000    0.050019
            34    1       6.319442      9.121328      4.642137     0.000000   -0.000000   -0.050019
            35    1       6.319442      7.297063     10.771556     0.000000    0.000000   -0.050019
            36    1       6.319442      9.121328      1.487282     0.000000   -0.000000    0.050019
            37    0       4.739581     10.033461      3.064709    -0.000000    0.000000    0.000000
            38    0       4.739581      0.912133      9.194128    -0.000000   -0.000000   -0.000000
            39    1       4.739581     10.033461      7.616701    -0.000000    0.000000    0.050019
            40    1       4.739581      0.912133      4.642137    -0.000000   -0.000000   -0.050019
            41    1       4.739581     10.033461     10.771556    -0.000000    0.000000   -0.050019
            42    1       4.739581      0.912133      1.487282    -0.000000   -0.000000    0.050019
            43    0       6.319442      1.824266      3.064709     0.000000    0.000000    0.000000
            44    0       6.319442      3.648531      9.194128     0.000000   -0.000000   -0.000000
            45    1       6.319442      1.824266      7.616701     0.000000    0.000000    0.050019
            46    1       6.319442      3.648531      4.642137     0.000000   -0.000000   -0.050019
            47    1       6.319442      1.824266     10.771556     0.000000    0.000000   -0.050019
            48    1       6.319442      3.648531      1.487282     0.000000   -0.000000    0.050019
            49    0       7.899302      4.560664      3.064709    -0.000000    0.000000   -0.000000
            50    0       7.899302      6.384930      9.194128    -0.000000   -0.000000   -0.000000
            51    1       7.899302      4.560664      7.616701    -0.000000    0.000000    0.050019
            52    1       7.899302      6.384930      4.642137    -0.000000   -0.000000   -0.050019
            53    1       7.899302      4.560664     10.771556    -0.000000    0.000000   -0.050019
            54    1       7.899302      6.384930      1.487282    -0.000000   -0.000000    0.050019
            55    0       9.479162      7.297063      3.064709     0.000000    0.000000    0.000000
            56    0       9.479162      9.121328      9.194128     0.000000   -0.000000   -0.000000
            57    1       9.479162      7.297063      7.616701     0.000000    0.000000    0.050019
            58    1       9.479162      9.121328      4.642137     0.000000   -0.000000   -0.050019
            59    1       9.479162      7.297063     10.771556     0.000000    0.000000   -0.050019
            60    1       9.479162      9.121328      1.487282     0.000000   -0.000000    0.050019
            61    0       7.899302     10.033461      3.064709    -0.000000    0.000000   -0.000000
            62    0       7.899302      0.912133      9.194128    -0.000000   -0.000000   -0.000000
            63    1       7.899302     10.033461      7.616701    -0.000000    0.000000    0.050019
            64    1       7.899302      0.912133      4.642137    -0.000000   -0.000000   -0.050019
            65    1       7.899302     10.033461     10.771556    -0.000000    0.000000   -0.050019
            66    1       7.899302      0.912133      1.487282    -0.000000   -0.000000    0.050019
            67    0       9.479162      1.824266      3.064709     0.000000    0.000000   -0.000000
            68    0       9.479162      3.648531      9.194128     0.000000   -0.000000   -0.000000
            69    1       9.479162      1.824266      7.616701     0.000000    0.000000    0.050019
            70    1       9.479162      3.648531      4.642137     0.000000   -0.000000   -0.050019
            71    1       9.479162      1.824266     10.771556     0.000000    0.000000   -0.050019
            72    1       9.479162      3.648531      1.487282     0.000000   -0.000000    0.050019
            73    0      11.059023      4.560664      3.064709    -0.000000    0.000000   -0.000000
            74    0      11.059023      6.384930      9.194128    -0.000000   -0.000000   -0.000000
            75    1      11.059023      4.560664      7.616701    -0.000000    0.000000    0.050019
            76    1      11.059023      6.384930      4.642137    -0.000000   -0.000000   -0.050019
            77    1      11.059023      4.560664     10.771556    -0.000000    0.000000   -0.050019
            78    1      11.059023      6.384930      1.487282    -0.000000   -0.000000    0.050019
            79    0       0.000000      7.297063      3.064709     0.000000    0.000000    0.000000
            80    0       0.000000      9.121328      9.194128    -0.000000   -0.000000   -0.000000
            81    1       0.000000      7.297063      7.616701     0.000000    0.000000    0.050019
            82    1       0.000000      9.121328      4.642137    -0.000000   -0.000000   -0.050019
            83    1       0.000000      7.297063     10.771556     0.000000    0.000000   -0.050019
            84    1       0.000000      9.121328      1.487282    -0.000000   -0.000000    0.050019
            85    0      11.059023     10.033461      3.064709    -0.000000    0.000000   -0.000000
            86    0      11.059023      0.912133      9.194128    -0.000000   -0.000000   -0.000000
            87    1      11.059023     10.033461      7.616701    -0.000000    0.000000    0.050019
            88    1      11.059023      0.912133      4.642137    -0.000000   -0.000000   -0.050019
            89    1      11.059023     10.033461     10.771556    -0.000000    0.000000   -0.050019
            90    1      11.059023      0.912133      1.487282    -0.000000   -0.000000    0.050019
            91    0       0.000000      1.824266      3.064709     0.000000    0.000000    0.000000
            92    0       0.000000      3.648531      9.194128     0.000000   -0.000000   -0.000000
            93    1       0.000000      1.824266      7.616701     0.000000    0.000000    0.050019
            94    1       0.000000      3.648531      4.642137     0.000000   -0.000000   -0.050019
            95    1       0.000000      1.824266     10.771556     0.000000    0.000000   -0.050019
            96    1       0.000000      3.648531      1.487282     0.000000   -0.000000    0.050019
 Energy
     -80527.373318514248
 PlusStress:  xx          yy          zz          yz          xz          xy
        -1.52776    -1.52776     1.60482    -0.00000     0.00000     0.00000
END_CFG

BEGIN_CFG
 Size
    96
 Supercell
        12.671760      0.000000      0.000000
         0.000000     10.894974      0.000000
         0.000000      0.000000     12.270869
 AtomData:  id type       cartes_x      cartes_y      cartes_z           fx          fy          fz
             1    0       1.665890      4.489320      2.988900     0.491402    0.101874    1.925436
             2    0       1.568510      6.362820      9.264050    -0.315503   -0.102418   -0.162201
             3    1       1.429320      4.548520      7.654500     0.742033    0.331328   -0.040652
             4    1       1.720390      6.376110      4.657330    -0.647654   -0.916469   -0.027509
             5    1       1.683640      4.483510     10.832200    -1.329597    1.043937    0.444630
             6    1       1.662630      6.340520      1.584560    -0.204516    0.498581   -0.824323
             7    0       3.236610      7.289870      3.110060     0.652507    0.881908   -0.620210
             8    0       3.076030      9.135690      9.224920     0.704749   -0.534936   -0.092521
             9    1       3.101380      7.250660      7.660460     0.059188    0.539232    0.033285
            10    1       3.203090      9.146590      4.748500    -0.125585   -0.359599   -0.717649
            11    1       3.194470      7.293850     10.774500    -0.424354    0.248698    0.426940
            12    1       3.303750      9.196920      1.542100    -0.826782   -0.744559    0.023265
            13    0       1.666880     10.061700      3.101270    -0.516861    0.058373    0.020695
            14    0       1.421020      0.960725      9.184390     1.168311   -1.231307    0.756471
            15    1       1.466250      9.953000      7.627090     0.502845    0.609991   -0.385944
            16    1       1.647790      1.137260      4.604950    -0.663512   -0.852267   -0.465635
            17    1       1.462010      9.993030     10.737600     0.038577    0.382155    0.427652
            18    1       1.514800      0.938165      1.351920     0.410087    0.082948    1.789946
            19    0       3.305060      1.841600      3.041390    -1.126908   -0.562742   -0.715249
            20    0       3.079420      3.674690      9.169600     0.725941   -1.062266   -0.343072
            21    1       2.995640      1.762820      7.658840     0.948130    0.808363   -0.709043
            22    1       3.418950      3.556870      4.621940    -1.172773    1.394128   -0.437584
            23    1       3.063160      1.811370     10.729600     0.133754    0.157760    0.066916
            24    1       3.314730      3.596570      1.401910    -0.518668    0.432023    0.291829
            25    0       4.832060      4.657170      2.973940    -0.915213   -1.134376    1.529031
            26    0       4.743090      6.439250      9.198700     0.189609   -0.200665    0.356668
            27    1       4.641660      4.655390      7.679870     0.388555   -0.636216   -1.137886
            28    1       4.849860      6.439040      4.672170    -0.377945   -0.641646   -0.432581
            29    1       4.729740      4.474070     10.717600     0.112479    0.776388    0.069606
            30    1       4.820810      6.433670      1.366760    -0.091580    0.146067    1.077976
            31    0       6.429330      7.267770      3.082610    -1.524453    0.456947   -0.515236
            32    0       6.358620      9.179850      9.203850    -1.798495   -1.468739   -1.140565
            33    1       6.311750      7.318720      7.518880    -0.184992    0.241216    1.269348
            34    1       6.321130      9.016260      4.792790     0.656721    0.527587   -0.987886
            35    1       6.314710      7.339220     10.827900     0.064622   -0.025984   -0.954085
            36    1       6.352830      9.106930      1.617480     0.191000   -0.227853   -1.372842
            37    0       4.828290     10.000100      3.154750    -0.674278   -0.437503    1.475489
            38    0       4.687560      0.941497      9.175480    -0.420451    0.066384   -0.764147
            39    1       4.606800      9.961730      7.611650     0.805897    0.348423    0.348607
            40    1       4.692010      0.874421      4.766900     0.674081    0.364016   -0.326453
            41    1       4.781510     10.119800     10.772300    -0.543639   -0.932302    0.009546
            42    1       4.913390      0.822144      1.588370    -0.558058    0.840075   -0.793700
            43    0       6.342470      1.809670      3.212610    -0.021213   -0.279012   -0.840300
            44    0       6.297060      3.672750      9.105930    -0.038573   -0.725985    0.529708
            45    1       6.327200      1.760070      7.549600    -0.745135    0.954839    0.110245
            46    1       6.281730      3.673290      4.685850     0.633243    0.422612   -0.055486
            47    1       6.214890      1.782810     10.776200     0.864892    0.819995   -0.690801
            48    1       6.350480      3.572670      1.591780     0.326320   -0.187573   -1.364070
            49    0       7.870300      4.528400      3.064210     1.759849    0.832443    0.227416
            50    0       7.870040      6.388730      9.151840    -0.561126    0.474341   -0.098210
            51    1       7.914740      4.586600      7.534290    -1.172378    0.187409   -0.580357
            52    1       7.901150      6.423300      4.672030     0.276919   -1.397282    0.538339
            53    1       7.861230      4.625560     10.723700    -0.411400   -0.612283   -0.173842
            54    1       7.902400      6.466850      1.338710     0.262276   -1.016413    1.531385
            55    0       9.453780      7.214430      3.127440     0.680370    0.965747   -1.469587
            56    0       9.430310      9.081680      9.069510     0.874420    0.456328    0.176443
            57    1       9.365460      7.246830      7.506800     0.838091    0.366386    0.293692
            58    1       9.586260      9.084430      4.646980    -0.554078   -0.103097   -0.032131
            59    1       9.422340      7.343310     10.719200     0.126223   -0.103065    0.003144
            60    1       9.544940      9.008100      1.521330    -0.277316    0.401251    0.126049
            61    0       7.923920     10.019900      3.087660     0.776090   -2.251733    0.850028
            62    0       7.858710      0.936295      9.133210     0.617069    0.515289    0.752436
            63    1       7.844090     10.051800      7.559790     0.145854   -0.287062   -0.550468
            64    1       7.969520      0.849770      4.626970    -0.735620    0.388350    1.975481
            65    1       7.981030     10.006100     10.648100    -0.340990    0.455856    1.468525
            66    1       7.845900      0.819556      1.509340     0.321725    1.193828   -0.142674
            67    0       9.423350      1.769610      3.104720     1.577230    0.200108   -1.376768
            68    0       9.395950      3.718260      9.066730     1.035902   -0.545563    1.684871
            69    1       9.485230      1.835120      7.575060     0.004309    0.244735    0.158695
            70    1       9.538700      3.564080      4.603970    -0.469027    0.985362    0.071849
            71    1       9.414960      1.926460     10.736700     0.129980   -0.120087   -0.504106
            72    1       9.562990      3.560460      1.465520    -0.946390    0.301982    0.374458
            73    0      11.099600      4.534740      3.006730    -0.199783   -0.347869    1.162208
            74    0      11.030900      6.431900      9.170870    -0.874247    0.835289    0.460495
            75    1      11.074900      4.709230      7.645060     0.119617   -1.647159   -0.641698
            76    1      11.080800      6.356950      4.619350    -0.318597   -0.738831    0.929353
            77    1      10.808800      4.699290     10.735500     1.299454   -0.938953    0.397562
            78    1      11.004100      6.336440      1.534750     0.665617    0.522402   -0.522178
            79    0       0.013163      7.171840      3.143940     0.781723    1.206010   -0.891785
            80    0      -0.057155      9.077850      9.151940    -1.448055    0.643753    0.018703
            81    1      -0.027797      7.158910      7.637540     0.352690    1.119042   -0.298884
            82    1       0.063686      9.050580      4.689580     0.133046    0.268946   -0.414583
            83    1      -0.071107      7.373370     10.740200     0.188029   -0.991148    0.677801
            84    1       0.098178      9.030530      1.600330     0.230558   -0.134506   -0.701879
            85    0      11.166300      9.925600      3.055940    -0.744117    0.859442    0.817287
            86    0      11.093200      1.027040      9.218170    -1.883020   -1.636609   -0.179459
            87    1      11.016900     10.081700      7.546610     0.452845   -0.182901    0.773095
            88    1      11.038000      0.826985      4.671160     0.557985    0.605210   -0.516585
            89    1      10.938400      9.953900     10.801100     0.684969    0.492668   -1.251035
            90    1      11.019800      0.913937      1.549120     0.340016   -0.193441   -0.299912
            91    0      -0.095752      1.943340      3.060400     1.432147   -1.829629   -0.246689
            92    0      -0.046602      3.734960      9.306580    -0.985866   -0.584459   -0.790443
            93    1      -0.062643      1.859750      7.624900    -0.274106    0.971591   -0.144204
            94    1       0.021419      3.708960      4.627920     0.168050    0.060718   -0.207620
            95    1      -0.056310      1.864020     10.820100    -0.166666    0.346633    0.376224
            96    1       0.037735      3.722550      1.414060    -0.188473   -0.510461    0.123898
 Energy
     -80522.067936933439
 PlusStress:  xx          yy          zz          yz          xz          xy
         5.20252    17.19349     7.66009    -6.50984    -4.95478     2.42613
END_CFG

BEGIN_CFG
 Size
    96
 Supercell
        12.630008      0.000000      0.000000
         0.000000     10.924001      0.000000
         0.000000      0.000000     12.407714
 AtomData:  id type       cartes_x      cartes_y      cartes_z           fx          fy          fz
             1    0       1.547530      4.561020      3.071120     0.605363   -0.038888    0.965715
             2    0       1.558890      6.387080      9.163160    -0.079771    0.607196    0.627557
             3    1       1.660220      4.610900      7.672910    -1.354057   -1.056505   -0.726695
             4    1       1.574730      6.375590      4.700320    -0.406394   -0.325886   -0.262038
             5    1       1.593220      4.600080     10.857800    -0.528905   -0.376736   -0.969955
             6    1       1.634710      6.345480      1.387880    -0.442901   -0.183685    0.873743
             7    0       3.104260      7.205410      3.103890     0.649661    0.900327   -0.290353
             8    0       3.173910      9.115460      9.148270     1.404198    0.020591    0.887631
             9    1       3.212170      7.205060      7.541860    -0.562799    0.775976    0.557953
            10    1       3.279830      9.096560      4.685650    -0.939725   -0.691608   -0.293721
            11    1       3.134130      7.304740     10.737800    -0.102938    0.177861   -0.001786
            12    1       3.081980      9.009350      1.500390     0.592652   -0.024232   -0.347713
            13    0       1.628020      9.936410      3.085320    -0.793052    0.504573   -0.505255
            14    0       1.668110      0.957740      9.168620    -1.534565    0.027218    1.058188
            15    1       1.591430     10.065200      7.754810    -0.059056   -0.301474   -2.178518
            16    1       1.657430      0.814641      4.638040    -0.467346    0.405122    0.378679
            17    1       1.647220     10.069500     10.860900    -0.052679   -0.275314   -1.154980
            18    1       1.607830      0.903411      1.583950    -0.737060   -0.631379   -1.025223
            19    0       3.175160      1.805080      3.021090     0.156670   -0.909333    0.685851
            20    0       3.111680      3.659250      9.210290     1.261180   -0.511822    1.591366
            21    1       3.341840      1.826380      7.622550    -1.491639    0.672806   -0.447612
            22    1       3.194440      3.525110      4.608590    -0.542918    0.758558    0.735583
            23    1       3.138290      1.770650     10.823300     0.639468    0.777248   -0.540544
            24    1       3.096780      3.647990      1.563840     0.461960   -0.101725   -1.478470
            25    0       4.717120      4.480050      3.075650    -0.116256    0.677045   -1.230520
            26    0       4.704540      6.338630      9.198440    -0.418767    0.981471    0.997876
            27    1       4.744410      4.517000      7.702960     0.081820   -0.000725   -0.972238
            28    1       4.709470      6.249850      4.595500     0.190651    0.837262    1.139795
            29    1       4.755620      4.622540     10.821100    -0.521940   -0.395132    0.098861
            30    1       4.714680      6.350800      1.572550    -0.001888   -0.134481   -0.804604
            31    0       6.309520      7.273030      3.086380     0.074509   -1.089614   -0.368562
            32    0       6.329660      9.180690      9.175630    -0.393325   -1.194704   -0.499881
            33    1       6.201590      7.232500      7.686250     1.440362    0.660877   -0.499252
            34    1       6.317340      9.075630      4.620970     0.200913    0.477916   -0.288070
            35    1       6.195970      7.350200     10.842200     0.699471   -0.162519   -0.702735
            36    1       6.288800      8.990580      1.498370    -0.363033    0.359181   -1.450214
            37    0       4.727140      9.964670      3.012480     0.084941   -0.667341    0.167097
            38    0       4.852050      1.017010      9.172700    -0.427730   -1.103686    1.094506
            39    1       4.793520     10.088100      7.499150    -0.243938   -0.140699    1.219994
            40    1       4.656830      0.797425      4.582020     0.966710    0.870860    0.439352
            41    1       4.910040     10.071800     10.749600    -1.782629    0.460302    0.096771
            42    1       4.755740      0.819070      1.470460     0.167113    0.827901   -0.122426
            43    0       6.338240      1.801350      3.087950    -1.327649    0.163466   -2.178095
            44    0       6.367030      3.764730      9.261790    -0.286893   -0.734548   -0.530136
            45    1       6.450450      1.957610      7.669550    -0.220699    0.252997   -0.306330
            46    1       6.362820      3.683660      4.474260     0.003351   -0.712487    2.437420
            47    1       6.212890      2.035990     10.890400     0.831459   -0.867539   -0.383404
            48    1       6.298230      3.728560      1.437810    -0.219192   -1.049606   -0.075218
            49    0       7.893940      4.562990      2.984340     1.030728    0.371156    0.218028
            50    0       7.852760      6.393170      9.285870     0.138089    0.564731   -0.234460
            51    1       8.095260      4.632670      7.714570    -1.252517   -0.325472   -0.252228
            52    1       7.947510      6.396800      4.575010    -0.474472   -0.560472    0.586452
            53    1       7.889850      4.501990     10.875600     0.415927    0.952390    0.197674
            54    1       7.871930      6.365020      1.402520     0.063591    0.309294    0.436360
            55    0       9.474090      7.215360      3.007360     0.629910    1.513775   -0.954800
            56    0       9.470720      9.121110      9.227190    -1.665435   -0.155298    0.471806
            57    1       9.427860      7.196260      7.536830    -0.833718    1.220824    0.692391
            58    1       9.395350      9.059740      4.617880     0.311963    0.209894   -1.243704
            59    1       9.367380      7.331700     10.877800     0.596372    0.184877   -0.763876
            60    1       9.507740      9.295350      1.331200    -0.120155   -1.191669    0.501712
            61    0       7.848910      9.976870      2.895920     0.976940    1.122851    2.226088
            62    0       7.929400      1.128960      9.323470    -0.258340   -1.696071   -0.256671
            63    1       7.845470     10.174100      7.662080     0.907288   -0.061614    0.371969
            64    1       7.921670      0.948145      4.517650     0.018013   -1.186638    1.140689
            65    1       7.768110     10.089000     10.817300     1.303912    0.283437   -0.305716
            66    1       7.854220      0.986010      1.414920     0.261082   -0.358831    0.178785
            67    0       9.471550      1.865930      3.035000     0.401484   -0.042401   -1.336293
            68    0       9.545890      3.707310      9.330480     0.038000   -0.175106   -1.181834
            69    1       9.561700      1.828680      7.646340    -0.752419    0.740229    0.590571
            70    1       9.547550      3.658100      4.625750    -0.756732    0.108632   -0.401807
            71    1       9.534090      1.942850     10.888400     0.163862   -0.737171   -0.025621
            72    1       9.435100      3.662270      1.394770     0.458086   -0.004349    0.250845
            73    0      11.038100      4.564550      2.994130     0.775482   -1.562017   -0.058064
            74    0      10.951400      6.494500      9.146230     1.743240   -1.002531    1.274607
            75    1      11.087000      4.614920      7.665740    -0.106178   -0.410558    0.113873
            76    1      10.999500      6.245940      4.580550     0.472868    1.211463    0.419518
            77    1      11.097400      4.705950     10.816100    -0.034078   -0.200432    0.041486
            78    1      11.146400      6.353600      1.417840    -0.932728   -0.203396   -0.208203
            79    0       0.018478      7.183970      3.015830    -0.103841    0.496614    0.014943
            80    0       0.019968      9.126650      9.204360    -0.430829    0.323851    0.348162
            81    1       0.001373      7.360920      7.533840    -0.112408   -0.334441    0.905089
            82    1      -0.069426      9.049720      4.447650     0.588626   -0.130451    2.054070
            83    1      -0.024457      7.341750     10.751900    -0.052179   -0.346562   -0.193423
            84    1      -0.105577      9.044300      1.473310     1.309666    0.109207   -0.397204
            85    0      11.060400     10.052500      3.005420    -1.602598    0.417755   -0.075475
            86    0      11.069500      0.907730      9.212390    -0.948178   -0.304305    0.256403
            87    1      10.939600      9.908580      7.636210     1.224463    0.931838   -0.237885
            88    1      10.974800      0.947202      4.636050     0.478812   -0.542431    0.092693
            89    1      11.064000     10.065000     10.772200    -0.110227   -0.535745    0.337037
            90    1      11.128500      1.040990      1.432880    -0.363453   -0.545935    0.744224
            91    0       0.014611      1.811090      3.153340     0.199790   -0.051404   -0.308563
            92    0      -0.070192      3.567150      9.256900     1.531993    2.203674   -0.845493
            93    1      -0.102689      1.755110      7.589260     1.307525    0.677841    0.223064
            94    1       0.043098      3.659170      4.728750    -0.526784    0.036297   -0.810667
            95    1      -0.038728      1.807280     10.776800     0.866670   -0.279263    0.386036