BEGIN_CFG
Size
96
Supercell
12.702281273761322	0.0	0.0
0.0	11.039448222909119	0.0
0.0	0.0	12.518974374518354
AtomData:	id	type	cartes_x	cartes_y	cartes_z	fx	fy	fz
1	0	1.64779000000000008797	4.59116000000000035186	2.91083999999999987196	-0.49140457800282999479	-0.97274181110894997193	-0.50461696904341002412	
2	0	1.56976000000000004420	6.44951000000000007617	9.31869000000000013983	-1.37751318080080009665	0.04970298754468999852	-1.83411114425221999369	
3	1	1.53177999999999991942	4.65981000000000022965	7.63893999999999984141	0.22291075215882999450	-0.23982231861492001035	0.53991721080527999010	
4	1	1.53072000000000008058	6.28592999999999957339	4.64355000000000028848	0.44986686357317001717	0.45425290239351001631	-1.85894689059492002059	
5	1	1.57604999999999995097	4.63081000000000031491	10.82370000000000054285	-0.15776793680921000207	-0.36955289024908999362	0.20820169635149998744	
6	1	1.64810999999999996390	6.51527999999999973824	1.28512000000000004007	-0.69520403513104001014	-1.51815450107029992211	-0.00412652178877000002	
7	0	3.19980000000000019966	7.15205000000000001847	2.92122999999999999332	0.56177144886702001791	1.30828594816751997421	0.31568836322480997580	
8	0	3.03019000000000016115	9.27013999999999960266	9.14780999999999977490	0.48237750298741000066	0.12672072281772001068	1.85561290916208010415	
9	1	3.10958999999999985420	7.53314000000000039137	7.69364999999999987779	0.20697177795356999641	-2.21194893483552013080	-0.12437916985050000152	
10	1	3.25294000000000016470	8.82854999999999989768	4.62150999999999978485	-0.12551119190564999362	1.48398459713905994661	-1.22219271277228003214	
11	1	3.02002000000000014879	7.29992999999999980787	10.86930000000000084981	0.98724723194455998865	1.20670836882769005882	0.20756979773587999616	
12	1	3.16725000000000012079	9.07207000000000007844	1.35729999999999995097	-0.15905811904636998899	-0.52439871464201004425	0.27938003219995000137	
13	0	1.64884000000000008335	9.93684000000000011710	3.05731999999999981554	-0.16293228825486000266	-0.40787912630258998936	-0.68657852698818999659	
14	0	1.51042999999999993932	1.02906000000000008576	9.28091000000000043713	-0.71410133094373995366	-2.28184565753885992834	0.94276574228869003402	
15	1	1.34692999999999996064	10.18549999999999933209	7.49478000000000044167	0.71369937475246003622	0.20476266706949000640	1.80716622385694991593	
16	1	1.72428000000000003489	0.74143000000000003347	4.60623999999999966803	-0.05619807826679999729	0.72081548480926005418	-0.82637488633711997377	
17	1	1.53645000000000009344	10.15429999999999921556	10.80300000000000082423	-0.42056434896548999802	0.38098053945737997417	-0.28274632172077002190	
18	1	1.51968999999999998529	0.64551999999999998270	1.47646999999999994913	0.19622418538902999807	0.65977106708098998133	-1.05367628405499003108	
19	0	3.14177000000000017366	1.78004000000000006665	2.79418999999999995154	0.85478700584116995564	-0.93716243514076003063	1.22755705699444006562	
20	0	3.15244999999999997442	3.76406999999999980488	9.23597999999999963450	0.53357483825736995442	-0.61458835678693002347	-0.29195921917898998155	
21	1	3.00932000000000021700	1.83696999999999999176	7.75724000000000035726	1.24339715969156006103	0.86447865049212002653	-1.16442832750776004147	
22	1	3.24980000000000002203	3.62707999999999985974	4.35881999999999969475	-0.12376969289002000274	-0.11960606080751000346	0.29022018766496998632	
23	1	3.13398000000000021004	1.97412999999999994039	10.79770000000000074181	-0.30900231114128001719	-0.49591818516773000791	0.49430055239357001406	
24	1	3.11737000000000019639	3.56926999999999994273	1.16379000000000010218	0.54464688233072999779	0.49641357907466998611	1.09879405705217991773	
25	0	4.82505000000000006111	4.52177000000000006708	2.80053999999999980730	-0.17529734017914999633	-0.44230322025736001912	0.78948019333882002435	
26	0	4.67886999999999986244	6.32549999999999990052	9.41935999999999928889	0.70709300003365005427	2.34144385397505994106	-1.16837728340155000417	
27	1	4.90418999999999982720	4.64400000000000012790	7.66805999999999965411	-1.95143399412761997525	0.07097342406437999462	-0.08389449675242000026	
28	1	4.88536999999999999034	6.41910000000000025011	4.49953000000000002956	-0.82519993335070995766	-1.76816973345554995234	-0.17650904545880999330	
29	1	4.80947000000000013387	4.49856999999999995765	10.91810000000000080433	-0.40201225277984997675	0.16796634129266999058	-0.68418627023986000601	
30	1	4.88037999999999971834	6.28352999999999983771	1.24622000000000010544	-0.42950559499136997665	0.79750482853666004868	0.63095981349561003348	
31	0	6.40547999999999984055	7.19998999999999966803	2.94785999999999992482	0.49745176395502999078	1.30436363204807004301	-0.60820739898870002094	
32	0	6.27437999999999984624	9.20866999999999968907	9.34779999999999944293	0.24592252478088000300	-0.88012444885023000118	0.36055246356124998064	
33	1	6.23639999999999972147	7.27043999999999979167	7.77855999999999969674	-0.65916446175111997885	0.97763790161395003331	0.31834260257841001662	
34	1	6.24047999999999980503	9.08195000000000085549	4.53453999999999979309	0.07374573896463999800	-0.52700740451784999774	0.09115443691428000428	
35	1	6.31620999999999988006	7.39906000000000041439	11.03190000000000026148	-1.11241665541125001049	-0.30782165692024998638	-0.86905057168720001304	
36	1	6.47735000000000038511	9.16179999999999949978	1.35607999999999995211	-0.86222249911125004029	-1.22207161289128007908	0.27429943453580002410	
37	0	4.75077999999999978087	9.95692000000000021487	2.84608999999999978670	0.34863469715882000610	0.44791364384569998247	1.72274822704153995900	
38	0	4.67654999999999976268	0.94944499999999998341	9.27630000000000087823	-0.40474932046109002304	0.51623738618725001359	0.14023094880121000916	
39	1	4.77714999999999978542	10.20770000000000088392	7.78674999999999961631	-0.57161751955308004458	-0.83737794544923005446	-1.19458511300763992047	
40	1	4.76004000000000004889	0.89211899999999999533	4.42007999999999956486	-1.03136656751354993666	-0.81112838866502001700	0.22691778295983000557	
41	1	4.58436999999999983402	10.07119999999999926388	10.87030000000000029559	0.20939405346810999187	0.57636663230411999681	-0.57702800272839005480	
42	1	4.79556999999999966633	0.73815699999999995207	1.29960999999999993193	0.08224978024830000012	0.98879737755595997761	0.45037448761726001090	
43	0	6.36725000000000029843	1.78930999999999995609	3.04503000000000012548	0.31116010348340000791	-1.10369711583585994319	-2.70219957294429979910	
44	0	6.33966999999999991644	3.68003999999999997783	9.18291999999999930537	0.57097629397862004197	-0.02741624931077000019	0.97507852509413994735	
45	1	6.23390999999999984027	1.81258000000000008001	7.56428000000000011482	0.38709719003955000982	-0.02832612721003999884	1.21705780906954008636	
46	1	6.31588999999999956003	3.57877000000000000668	4.50673000000000012477	0.42156944413991997989	1.13209882464686995007	-0.11913028181396999317	
47	1	6.18630000000000013216	1.95605000000000006644	10.78720000000000034390	0.82713607547333001246	-1.24955908927378001039	0.30241350741625000476	
48	1	6.45594999999999963336	3.60714999999999985647	1.28864000000000000767	-0.00247303616692000003	-0.60783679978638005537	0.67205606639172998928	
49	0	7.99833000000000016172	4.55119999999999969020	2.90779999999999994031	-0.13347301599527999771	-0.83173750283990999232	2.25113035206411016276	
50	0	7.72907999999999972829	6.45835999999999987864	9.37172999999999944976	2.56381058898193003870	-0.44181595433629999858	0.11760108250992000467	
51	1	7.92511000000000009891	4.69559000000000015262	7.62662999999999957623	-0.10722598203932999505	-0.33694341590072002246	0.99346277183105002884	
52	1	8.05419999999999980389	6.33779000000000003467	4.66870000000000029416	-0.88624540137479002055	-0.18665350700579000365	-1.38361617572718009761	
53	1	7.96443000000000012051	4.58084000000000024500	10.91450000000000031264	-1.22547194770239009642	0.47574575388894002614	-0.34063909173834000521	
54	1	8.02955000000000040927	6.30283000000000015461	1.37857999999999991658	-0.45156304998911001025	0.55945090161513999494	-0.49534989106265997494	
55	0	9.49759000000000064290	7.25985000000000013642	2.97707999999999994856	0.11725284508460000199	0.35853891309675001153	0.67020592626977004702	
56	0	9.42910999999999965837	9.25229999999999996874	9.38105000000000011084	-0.14679984345773999799	-1.27845567708555996056	-0.43319579408200997728	
57	1	9.30863000000000084810	7.38727999999999962455	7.75340000000000006963	0.54165957032656997239	0.20711011534827999947	0.84527399040791995066	
58	1	9.54809999999999980957	9.05542999999999942418	4.69390000000000018332	0.13569471784989001195	0.03727372669711000175	-0.84576687149719997905	
59	1	9.41165999999999947079	7.43825999999999964984	10.98520000000000074181	0.23861267213292999823	-0.80967629210284997043	-1.11812990735418993360	
60	1	9.60313000000000016598	9.12091000000000029502	1.44985000000000008313	-0.32729082359633998589	0.11233297192572000434	0.71285519653295004172	
61	0	7.88959999999999972431	9.89154000000000088733	3.08662999999999998479	1.73907656724899006839	2.12746400326766993416	-0.28287842994919998318	
62	0	7.79232000000000013529	0.82750900000000005008	9.28480000000000060822	0.17556222755358000254	2.47015131602831994329	1.22331860045354989808	
63	1	7.89219999999999988205	10.16179999999999949978	7.76886000000000009891	-0.41605299177142002209	-1.23998078700545000252	-0.54408306167737996439	
64	1	7.87488999999999972346	0.79481900000000005324	4.66716999999999959670	0.04984586681909999872	-0.01495285624411000006	-0.41440218966172998050	
65	1	7.87833000000000005514	10.01120000000000054285	11.00029999999999930083	-0.58602018419094004109	1.30171610640938006931	-0.69917632407381002935	
66	1	7.93963999999999980872	0.67530400000000001537	1.48967999999999989313	-0.03550534451295000310	0.93352563028809998347	0.55787361582854000375	
67	0	9.43416999999999994486	1.82143999999999994799	3.08002999999999982350	1.80193183542681989451	-2.36908987553537020432	0.87969619492193995569	
68	0	9.43483999999999944919	3.78451000000000004064	9.31404999999999994031	1.32722935023797994347	-0.84267087710805999023	-1.03228644812913006312	
69	1	9.48682999999999942986	1.79479000000000010751	7.77867999999999959471	-0.84866497946816998876	0.44715332843833999199	0.04326038768761000103	
70	1	9.63097999999999920817	3.66564999999999985292	4.58940999999999998948	-0.63753800617294997810	0.02582957938080000099	0.11098699957306000508	
71	1	9.32382999999999917407	1.98192999999999996952	10.91479999999999961346	0.35083717015344001444	-1.29495831152286000609	-0.62358649451812997455	
72	1	9.62434000000000011710	3.50929000000000002046	1.51913999999999993484	-0.26400413746573997420	0.75649903932202999801	-1.27995432055581992437	
73	0	11.22279999999999944293	4.49148000000000013898	3.00837999999999983203	-0.51945516613291997654	-0.90087950331859001363	0.01953031462987999886	
74	0	11.06010000000000026432	6.47912999999999961176	9.27420000000000044338	-1.60028370398440999978	0.55152796463316999809	1.01659192280038990219	
75	1	11.03100000000000058265	4.80015999999999998238	7.70807000000000019924	0.25628613953569001627	-1.90471673779890005029	-0.17201340613426999160	
76	1	11.15590000000000081570	6.43503000000000024983	4.39512999999999998124	0.18065356421931999531	-0.73113422103252001527	1.58846908736869996126	
77	1	11.17450000000000009948	4.63126000000000015433	10.85490000000000065938	-0.71233588596760000211	0.10079414554785999514	-0.22255125942017001117	
78	1	10.99009999999999998010	6.24059000000000008157	1.47614000000000000767	0.99859285238492001557	0.55963445915372000972	-1.74890104635404997069	
79	0	-0.00909618000000000058	7.26832000000000011397	2.82846000000000019625	0.83859619989408995533	0.42845569306551001265	1.67100870541880008879	
80	0	-0.14481700000000000128	9.27177000000000006708	9.27093999999999951456	1.28309832431469006409	-0.87759247660396999535	-0.58876222286322998922	
81	1	-0.06232059999999999683	7.30067000000000021487	7.74106999999999967343	0.15527500928296000815	0.96683467529588995593	-0.33181511369126998057	
82	1	0.12142500000000000515	9.04275999999999946510	4.58802000000000020918	-0.37588119659915997239	-0.70562487111736005296	-0.00831826848446000008	
83	1	-0.10703699999999999326	7.42105000000000014637	10.76510000000000033538	0.61946159181952997752	-0.12115110444927000566	1.14742890423676002776	
84	1	-0.16221199999999999508	9.15029000000000003467	1.37057000000000006601	1.72762493380830006728	-0.19194274793214000097	-0.07028767053185000502	
85	0	11.24210000000000064801	9.97875999999999940826	3.09658999999999995367	-2.49319868379537989966	0.78502745144357000129	-0.48421180499958998977	
86	0	10.94030000000000057980	0.80102600000000001579	9.35772000000000048203	1.39765497952101003243	2.69041464480890990529	0.46802637346975001220	
87	1	10.96780000000000043769	10.07060000000000066223	7.75605000000000011084	-0.25936868812297997344	0.36445561762586997645	-0.61309924768783996551	
88	1	11.32399999999999984368	0.75624700000000000255	4.60027999999999970271	-1.50479711597508991616	0.78726283171884003931	0.46442385371562999730	
89	1	11.06910000000000060538	10.09720000000000084128	10.91729999999999911608	-0.36798334366529000805	-0.01279464688939999963	0.66331351846695996155	
90	1	11.02689999999999947988	0.91593700000000000117	1.52492000000000005322	0.40603849957903997980	-0.78378996950275003908	0.22172945578013000811	
91	0	0.06983540000000000580	1.71876999999999990898	3.00902000000000002800	0.25084097806792998719	-0.24441846256663998793	0.58411362815639000790	
92	0	-0.02413950000000000123	3.64281999999999994699	9.27427999999999919112	-0.65144822943586000452	2.19336613933672985866	-0.42815623966163002256	
93	1	-0.12109200000000000519	1.79920999999999997598	7.83140999999999998238	-0.76892464314798003588	0.05544849922817000204	-1.18186371815233992599	
94	1	0.10939300000000000412	3.58510000000000017550	4.56106000000000033623	0.37516117290287998021	0.05721948092143999687	-0.18509538345115000846	
95	1	-0.08826069999999999749	1.93833000000000010843	10.89700000000000024158	-0.13258899440186000529	-1.08488594674656990691	-0.02877981567015000172	
96	1	0.11767500000000000182	3.45664000000000015689	1.40765999999999991132	-0.53809572009656003733	1.08091017990283000394	-0.09491580242826999636	
Energy
-80519.62534450080420356244
PlusStress:	xx	yy	zz	yz	xz	xy
-13.79449039227944062702	-14.53043325033431010240	-21.93508135676688297622	-0.50118877469978884154	-7.90963887155414457908	0.54487721523466481344
END_CFG

BEGIN_CFG
Size
96
Supercell
12.632279520636915	0.0	0.0
0.0	10.95154100554057	0.0
0.0	0.0	12.151992738725234
AtomData:	id	type	cartes_x	cartes_y	cartes_z	fx	fy	fz
1	0	1.54564999999999996838	4.52219999999999977547	3.12821999999999977859	0.80219495277454000437	1.14388348690715990763	0.26315456968320000142	
2	0	1.59448999999999996291	6.36197999999999996845	9.11650999999999989143	-0.27734360859540002631	0.09158043124365999876	0.56209363691879998814	
3	1	1.53631999999999990791	4.57615999999999978343	7.54077999999999981640	0.16813897728251001040	-0.45038570643823999662	0.21890977224204999363	
4	1	1.58706999999999998074	6.43304999999999971294	4.70024999999999959499	-0.12314332051182000360	-0.56106486925809995192	-0.17830991398699000405	
5	1	1.52549000000000001265	4.52881000000000000227	10.75290000000000034674	0.11402817722505000086	0.11350654448279999531	-0.59149530283728002367	
6	1	1.71636999999999995126	6.34984999999999999432	1.52255000000000006999	-0.89078344898968997434	0.15829814405907000063	0.46871484164913002068	
7	0	3.21724999999999994316	7.24594000000000004746	3.15589999999999992752	0.00065711458106000001	0.58971940170251002655	-0.68507353425788997114	
8	0	3.14121000000000005770	9.07794999999999951967	9.20475000000000065370	0.44247720048348998523	0.75355865534402999284	-0.42793186764215002116	
9	1	3.15004000000000017323	7.34705000000000030269	7.58190000000000008384	0.07049223008914000388	-0.38237392612360998623	-0.18831704451149999802	
10	1	3.13804999999999978400	9.13776000000000010459	4.61965999999999965553	0.46571468202989002583	-0.04121066448591999970	0.94060629594443001533	
11	1	3.17286000000000001364	7.19245000000000000995	10.77679999999999971294	-0.49314864129746999177	0.77262933826685997740	-0.30342958478590997817	
12	1	3.21117000000000007987	9.09633999999999964814	1.54671000000000002927	-0.18820596357801000487	0.00084463699270999999	0.15169689792637000569	
13	0	1.61226000000000002643	10.07959999999999922693	3.10417999999999993932	-0.38238533166508997807	0.14420790455432000443	-1.41363779590694993438	
14	0	1.61885999999999996568	0.95726299999999997503	9.14067999999999969418	-1.01948367731330002961	-0.73821456482928005105	0.14297495309398000618	
15	1	1.62210999999999994081	10.10779999999999922977	7.56289999999999995595	-0.15536947037915999070	-0.53576008662704999175	0.25894205641492001879	
16	1	1.57810000000000005826	0.95080900000000001526	4.64695999999999997954	-0.19829008419887000914	-0.01403517055485999955	0.23850255710557999311	
17	1	1.55203000000000002068	10.08409999999999939746	10.67590000000000038938	-0.08118248029605999727	-0.43340247617881000330	0.33156242629623999818	
18	1	1.62271999999999994024	0.97289000000000003254	1.46988999999999991886	-0.14237509980214999028	-0.06381398626437000121	0.91231380717855004026	
19	0	3.18495000000000016982	1.89026999999999989477	3.14211000000000018062	-0.18077837908927998911	-0.31167972819683997798	-1.05208778303899008755	
20	0	3.13409000000000004249	3.65161999999999986599	9.15107000000000070372	-0.28352906323638998876	-0.40167250050874997447	0.63320019885860001629	
21	1	3.20624999999999982236	1.78401999999999993918	7.61730000000000018190	0.24456211132030000743	0.40018242014499000314	-0.32457006470765997763	
22	1	3.15373999999999998778	3.69038999999999983714	4.71255999999999986017	0.04959520709178000253	-0.07554349662994999659	0.15933370874019001096	
23	1	3.17047999999999996490	1.81177000000000010260	10.74390000000000000568	0.18512031749392998670	0.24562966725835000403	0.02231364223899999846	
24	1	3.24237000000000019639	3.74266999999999994131	1.57970000000000010409	-0.53387494185077999376	-0.63988781491199997475	-0.18215898000990998762	
25	0	4.79211999999999971322	4.56770000000000031548	3.16062999999999982847	0.01002789644559999929	0.19845467074844000410	0.28918314118559002024	
26	0	4.71420999999999956742	6.39794000000000018247	9.15029000000000003467	-0.06013551559744000075	-1.18641162166213010032	-0.17247450080139001272	
27	1	4.69855999999999962569	4.48794999999999966178	7.61847000000000029729	0.20644148750543001025	0.70013330496839998318	-0.46166278369494001543	
28	1	4.76832000000000011397	6.39756999999999997897	4.77594999999999991758	0.02006009443508000034	-0.20496255463397999863	-0.10442163793903000424	
29	1	4.71098999999999978883	4.59820999999999990848	10.75680000000000013927	-0.23095639410363000277	-0.29539996052350997457	-0.15691406030492000001	
30	1	4.85935999999999967969	6.35796000000000027796	1.59614999999999995772	-0.94446133196356996109	0.09833874097505000689	-0.37252750427615999307	
31	0	6.28652000000000032998	7.31355999999999983885	3.16606999999999993989	1.20154690729414004302	1.07080074045870010657	0.24553123674770999108	
32	0	6.32409999999999961062	9.05494000000000021089	9.16912999999999911438	0.01521242426638000009	0.88131105475194004839	-0.75831317525654995393	
33	1	6.34114999999999984226	7.21007999999999960039	7.63884000000000007446	-0.13030780431648000817	0.61957239637395999932	-0.91016150103708004515	
34	1	6.36169999999999991047	9.29020000000000045759	4.68304000000000009152	-0.18326773069047000431	-0.97403471218279003008	-0.08321065289711999935	
35	1	6.28066000000000013159	7.24723999999999968225	10.69689999999999940883	0.44231519566756999362	0.14612531312938001338	0.77626485890542995527	
36	1	6.27620999999999984453	9.20134000000000007446	1.52475999999999989321	0.08638580702652999543	-0.80263607856691998599	0.04601380635621000331	
37	0	4.74898000000000042320	10.08810000000000073328	3.12179999999999990834	-0.22258528527791998641	-0.08365413695010999462	0.15445100979143999709	
38	0	4.79100000000000036948	0.87571699999999996766	9.20270000000000010232	-0.48757120196818998226	0.21353276577927998714	-0.30123356642359000457	
39	1	4.72529000000000021231	10.00050000000000061107	7.56325000000000002842	0.10105113104358999510	-0.08058060154498999927	0.88674793518728001196	
40	1	4.72942999999999980076	1.00025999999999992696	4.70655000000000001137	0.37402764142396000002	-0.48238408579614000526	-0.10530884235119999937	
41	1	4.76438999999999968082	10.00220000000000020179	10.76430000000000042348	-0.12127077087232999986	-0.19102056142632001245	-0.12618385190400999152	
42	1	4.74976000000000020407	0.90196900000000002073	1.55197999999999991516	-0.20753503475175999471	0.52997685761473001254	-0.26068852906850997764	
43	0	6.36430000000000006821	1.80262999999999995460	3.07651999999999992141	-0.57540537312116002422	0.34011253411848002548	0.10480512464204999601	
44	0	6.26501999999999981128	3.63362000000000007205	9.19998999999999966803	0.76673964797911997593	0.02974404994710999964	-0.71952962623455996027	
45	1	6.33175000000000043343	1.77245999999999992447	7.56674999999999986500	-0.06379616592476000658	0.19340211795000000761	0.84654419651938994651	
46	1	6.36983000000000032514	3.59853999999999984993	4.66797000000000039677	0.11142515537731000064	0.13904133981478999926	0.42406863929067001306	
47	1	6.35979000000000027626	1.90393999999999996575	10.78940000000000054570	-0.39621167286001002239	-1.10503821548199998581	0.02111612620307000074	
48	1	6.40538000000000007361	3.64699999999999979750	1.59301000000000003709	-0.72664917496357994686	0.07339129425647999971	-0.75182095004641003033	
49	0	7.92224000000000039279	4.58647000000000026887	3.11661000000000010246	-0.46640102033109998025	0.70883748650694000659	-0.18933404119447000413	
50	0	7.91999999999999992895	6.37023000000000028109	9.17088999999999998636	-0.14653334035824999715	-0.19725376295936999926	-0.71651654190917002385	
51	1	7.86374999999999957367	4.51742000000000043514	7.60658999999999974051	0.15169119574508999060	-0.15354084085694999495	0.35933633210144999559	
52	1	7.91594999999999959783	6.39489999999999980673	4.74500000000000010658	-0.21281243988972001202	0.03601220405018999704	-0.52264244622925004613	
53	1	7.87638000000000015888	4.57568000000000019156	10.73060000000000080433	-0.02006369426603999903	-0.27065376149048997467	0.45813676722809998365	
54	1	7.77981000000000033623	6.45322999999999957765	1.47855000000000003091	0.85400519059024004864	-0.36504942316110999823	1.02681647525351005257	
55	0	9.47193000000000040473	7.27777999999999991587	3.12015000000000020108	-0.62275394346076995422	1.11510298070124003189	-0.22623475579748000830	
56	0	9.53087000000000017508	9.09354000000000084469	9.11082000000000036266	-1.06587300649811989040	0.76041332511709003317	-0.77639886160937998660	
57	1	9.48123000000000004661	7.25410000000000021458	7.48953999999999986414	-0.05646131136890000096	0.18587602136024999888	0.63857027943918998059	
58	1	9.41362999999999949807	9.18393000000000014893	4.67644000000000037431	0.49801146540362001280	-0.57414997470035000759	-0.44119361782206001354	
59	1	9.49417000000000044224	7.33751999999999959812	10.65099999999999980105	0.31774614625559000070	-0.64493640734988999519	0.74282900718929001371	
60	1	9.43507999999999924512	9.08981999999999956685	1.49517999999999995353	0.42754991774250000747	-0.26153315855844000426	-0.10322229670697999349	
61	0	7.92391000000000023107	10.03870000000000040075	3.01752000000000020208	-0.47990968771462000353	1.05997326517648993160	0.80565505810211002213	
62	0	7.87366999999999972459	0.82097500000000001030	9.21279000000000003467	0.04913265857489999833	1.41848412470272999819	-0.10650175056716999766	
63	1	7.87188999999999960977	10.10360000000000013642	7.52055999999999968963	0.13978023070313000398	-1.16766923445577996965	0.83111781953377994459	
64	1	7.93834999999999979536	0.95332799999999995322	4.59384000000000014552	0.29290382015826998963	-0.38454601212348998862	0.28617682710867997642	
65	1	7.91687999999999991729	9.93499000000000087596	10.73900000000000076739	0.10819412027635999518	-0.03332234076790999838	-0.08065166259672999771	
66	1	7.94489000000000000767	0.95680699999999996308	1.45022999999999990806	-0.13169038738954000345	-0.23218508163257001176	0.22258543006327000113	
67	0	9.51680999999999954753	1.87963999999999997748	3.04306000000000009820	-0.44583505090162001139	-0.75730727857465995889	-0.47530245241508001230	
68	0	9.45509000000000021657	3.56190000000000006608	9.22574000000000005173	-0.56338606777774002943	1.23878810069689992979	-0.58794097907178000106	
69	1	9.41507000000000005002	1.81692000000000009052	7.68470000000000030838	-0.21664870835319999243	-0.45956892150565997746	-1.08403152940670999271	
70	1	9.47527000000000008129	3.68807000000000018147	4.60892000000000034987	0.32366415913926999126	-0.32703675382188002185	1.08949755051557994889	
71	1	9.50028000000000005798	1.74914999999999998259	10.76050000000000039790	-0.72137530261894999839	-0.05035719446443000236	0.71787299767639001224	
72	1	9.44571999999999967201	3.72401999999999988589	1.51930000000000009486	0.71380279051845996197	0.15621665667508999320	-0.17926940480819000823	
73	0	11.07089999999999996305	4.60554000000000041126	3.13732999999999995211	-0.04596655069781999808	0.42636666205556000842	-1.00857007395532005667	
74	0	11.03880000000000016769	6.33776999999999990365	9.09828000000000081116	-0.04239321202101999780	0.36848625072494001209	0.09871105139682999352	
75	1	10.98010000000000019327	4.47989999999999977121	7.59128000000000024983	0.09830233839238000648	0.05746575149654999798	-0.24559055684903000061	
76	1	11.08530000000000015348	6.47607999999999961460	4.70432999999999967855	0.25460500406190000877	-0.29390992190344000790	-0.40175859386619999780	
77	1	10.99460000000000015064	4.54811000000000031918	10.72509999999999941167	0.60266674048168999978	0.02881967549074999912	0.19981170016022001268	
78	1	11.02679999999999971294	6.48841999999999963222	1.49954000000000009507	0.64788077412413003220	-0.65820878677998995165	0.58436079444505995006	
79	0	0.06537709999999999355	7.37478999999999995651	3.08836000000000021615	-0.63286352485936003820	-1.05741767974042999434	-0.82389713263961994461	
80	0	-0.03264910000000000034	9.13641999999999931958	9.08755000000000023874	0.60951304135174000365	0.36212016259264001583	0.41800321369271997707	
81	1	0.00161578999999999998	7.33338000000000000966	7.55447999999999986187	-0.01116897099380999986	-0.52317947704791001318	-0.21191496512222998683	
82	1	0.03029499999999999901	9.15109999999999956799	4.61455999999999999517	-0.38905525744334001903	0.51828343384175001862	0.50149792401861004176	
83	1	0.00507187000000000002	7.23775000000000012790	10.66910000000000025011	-0.12081214497544000286	0.48430208978208999504	-0.07629433189077999833	
84	1	0.03918080000000000174	9.18046999999999968622	1.47324999999999994849	0.01694837483524000085	-0.05949119894249999679	0.47910200899978000466	
85	0	11.00919999999999987494	10.05949999999999988631	3.05451000000000005841	0.55038307025597998923	-0.53628147995557995387	-0.38883113340859998264	
86	0	10.97059999999999924114	0.86412400000000000322	9.16910000000000025011	1.74011367932203997455	0.07203640689877000014	-0.00935933426287999942	
87	1	11.02399999999999913314	10.14889999999999936620	7.50565000000000015490	0.18383210061753998965	-1.08554026105482992470	0.20000487282646001175	
88	1	10.96219999999999927809	0.84587100000000003952	4.65068999999999999062	0.58557445117832995773	0.70973257785250998264	-0.08847047193498999706	
89	1	11.09759999999999990905	9.97413000000000060652	10.74600000000000044054	-0.40227000744063001747	0.08505530781513000183	-0.39911768916846002142	
90	1	11.02280000000000015348	0.87199300000000001809	1.37294999999999989271	0.23840585629787000577	0.44910329977263002688	1.21765078262856007996	
91	0	-0.05870680000000000343	1.81065000000000009273	3.08153999999999994586	0.49418897974066000600	-0.26370744552686997686	-0.50721103036869996661	
92	0	-0.04114439999999999764	3.62728999999999990322	9.13152999999999970271	0.09748234010459000398	0.28804701392076997868	0.44700607895316002427	
93	1	-0.04779989999999999933	1.81451999999999991076	7.57969999999999988205	0.11625481988182999327	-0.14754584136196999267	0.06070380550481999787	
94	1	-0.04789380000000000026	3.58470000000000021956	4.70835000000000025722	0.08257905583659000404	0.27504203304939001118	-0.11688351866127999479	
95	1	-0.05090800000000000186	1.78607000000000004647	10.69330000000000069349	0.31698806986933997232	0.27241050462684002209	0.16692889840919999944	
96	1	-0.00283788000000000009	3.66992999999999991445	1.55668999999999990713	-0.29609415372088998541	-0.16539338823721000393	-0.25281888818337000524	
Energy
-80525.40077524249500129372
PlusStress:	xx	yy	zz	yz	xz	xy
5.02194627221935796513	1.82588727202585987541	3.91493317360437753649	2.50985284647384965240	2.47098540282893175402	-0.29026408410753840039
END_CFG

BEGIN_CFG
Size
96
Supercell
12.65060997586355	0.0	0.0
0.0	10.86717276496519	0.0
0.0	0.0	12.522994163700897
AtomData:	id	type	cartes_x	cartes_y	cartes_z	fx	fy	fz
1	0	1.57967999999999997307	4.61598000000000041609	2.95167000000000001592	-0.32962177955411997576	-0.70523439770202001053	0.64132189616431001244	
2	0	1.56055000000000010374	6.34194999999999975415	9.25273999999999929855	-0.12760003687658000304	0.64239184732915999287	0.00281720386697999984	
3	1	1.60457999999999989527	4.53523000000000031662	7.69400999999999957168	-0.36760218327227001112	-0.03686026957317999758	-0.09403996623282999401	
4	1	1.55882000000000009443	6.46351999999999993207	4.53561000000000014154	0.18020796187525001120	-0.45255889902124002422	-0.09569249995395000263	
5	1	1.56471000000000004526	4.54356999999999988660	10.79379999999999917293	-0.04276166639633999927	0.01873957300594999986	0.99926342673581003417	
6	1	1.60455999999999998629	6.37274000000000029331	1.35251999999999994451	-0.06443308175332000676	0.37507616849754998878	0.14446527439608999877	
7	0	3.18156999999999978712	7.32265000000000032543	2.96837000000000017508	-0.86918680443853002515	-0.23739655795442998754	-0.40398374720070001631	