BEGIN_CFG
Size
96
Supercell
12.662179823135443	0.0	0.0
0.0	11.063817223568831	0.0
0.0	0.0	12.2459221469511
AtomData:	id	type	cartes_x	cartes_y	cartes_z	fx	fy	fz
1	0	1.40673000000000003595	4.50054999999999960636	3.13675000000000014921	1.87065815145886005233	0.09958539832401999692	-0.63367409700008003881	
2	0	1.61046000000000000263	6.45192999999999994287	9.09661000000000008470	-1.66271012762976999610	0.20602569911841001060	1.63999434984159009332	
3	1	1.72239999999999993108	4.64679999999999981952	7.58237999999999967571	-1.30072135773611008425	0.05577541983177999874	-0.89587545730982998116	
4	1	1.54936999999999991395	6.36355999999999966121	4.61104000000000002757	0.02698459931117000096	0.16738348069999001155	-0.06509241280340000158	
5	1	1.53170999999999990493	4.54586000000000023391	10.77439999999999997726	0.66404959482529002379	0.81185261737276004368	-1.03696935218092001207	
6	1	1.51137000000000010225	6.28685000000000027143	1.37819000000000002615	0.25359163285343999661	0.04050120932002999885	0.49220147138634001704	
7	0	3.11127999999999982350	7.27932000000000023476	2.94498000000000015319	-0.50595289780903995869	-0.45583673878385999600	2.34557939601172993349	
8	0	3.19084000000000012065	9.23105999999999937700	9.08341000000000065029	-0.54892779105332001333	-0.90385427856580002892	1.72488607057066989370	
9	1	3.04637000000000002231	7.37370000000000036522	7.58175000000000043343	1.49921908839168005478	0.11659793879731999988	-0.54598272674740999655	
10	1	3.08056999999999980844	9.04124999999999978684	4.66940000000000043912	0.31089194601983000110	0.44045724882846998272	-0.17203100237418000873	
11	1	3.18995000000000006324	7.34780000000000033111	10.67989999999999994884	-0.35798584198018001956	0.41884936224758001488	0.20486198584208001328	
12	1	3.13207000000000013173	9.24376999999999959812	1.64809000000000005492	0.56494157628566998852	-0.22108470135993998906	-1.26235633151969994792	
13	0	1.58586000000000004739	10.19369999999999976126	3.12558999999999986841	-1.35261454021221005917	-2.15229896562285993866	0.39987941857323999750	
14	0	1.66870999999999991559	0.82156899999999999373	9.12041999999999930537	-0.45117787762215999514	1.17288737872988990674	0.12622588320357000513	
15	1	1.60203999999999990855	10.13519999999999932072	7.47982000000000013529	0.29257380322371001613	-0.16045821116875000345	0.55653126951684994683	
16	1	1.52839999999999998082	0.84654099999999998793	4.75530000000000008242	0.26685108867107998343	0.18007388420976000454	-0.14727478123432999335	
17	1	1.67877999999999993896	10.06830000000000069349	10.81879999999999952820	-0.10993735213314000110	0.52747384141122999335	-1.06075083973961992179	
18	1	1.61104000000000002757	0.81182799999999999407	1.45676000000000005485	-0.08218705361243000551	0.75592107174443001760	0.66710592878006003126	
19	0	3.11383000000000009777	1.72483000000000008534	3.18014999999999981029	0.00967085936181999971	0.57427316303968001243	-0.56104632215531002881	
20	0	3.19812999999999991729	3.74984999999999990550	9.10431999999999952422	0.14870923395582000270	-2.30534723284932985266	1.14042586840720994168	
21	1	3.22982000000000013529	1.84407999999999994145	7.55592000000000041382	-0.06474963237217000456	0.06417473338517000470	0.50753499591958994852	
22	1	3.11826999999999987523	3.61216999999999988091	4.74584000000000028052	-0.72232407593418002101	-0.16481616536211998736	-0.47704932140562000820	
23	1	3.14137999999999983913	1.75992999999999999439	10.74029999999999951399	0.44345167498774001880	0.95742441570145997431	-0.32041323590606002325	
24	1	3.05039000000000015689	3.62192999999999987182	1.62122000000000010544	-0.05438800559983000132	-0.62367963950894000913	-0.25826495678145000578	
25	0	4.63684000000000029473	4.51872999999999969134	3.12698000000000009280	0.82405968262130002699	0.66916130695663000871	-0.33290673086273997461	
26	0	4.77726999999999968338	6.44303999999999987836	9.18734000000000072816	-0.15454234293185001303	-0.73987409108511004163	-0.59648315457288003660	
27	1	4.90916999999999958959	4.55996999999999985675	7.55923999999999995936	-0.57941113273433997310	0.27729561711315997563	0.41124335379497001242	
28	1	4.59898000000000006793	6.27015999999999973369	4.73132999999999981355	0.26394733564748001919	1.03391120421712989774	-0.98479921494341005062	
29	1	4.80072999999999971976	4.51712999999999986755	10.65779999999999994031	0.31134086620215001284	0.26002465745626002214	0.42464325569840999375	
30	1	4.75734000000000012420	6.43947999999999964871	1.50666999999999995374	-0.13528231710378998964	-0.78126930419414997164	-0.02253592952768999902	
31	0	6.25178999999999973625	7.30464999999999964331	3.17277999999999993364	0.53039430535385001519	-1.04711380138564003062	-0.28442429805433000478	
32	0	6.43137000000000025324	9.05106999999999928264	9.18022000000000026887	-1.34549748943369995580	1.47262053947744009363	-0.88820251233433999971	
33	1	6.15542000000000033566	7.30177999999999993719	7.49746000000000023533	1.70553127599288001370	-0.00603122042508000018	0.96158721648444001051	
34	1	6.31219999999999981100	9.07268000000000007788	4.68778999999999967940	0.15540503179679998613	0.55463659657532005109	0.82628289832360002354	
35	1	6.32727000000000039392	7.31449999999999977973	10.85870000000000068496	0.17491525948402000812	-0.12768123845942000449	-0.77296293827342998917	
36	1	6.25853000000000037062	9.18418999999999918771	1.48374999999999990230	0.26584670096342000178	-0.25456373456308001302	1.35262067301324995228	
37	0	4.76281999999999960949	10.05640000000000000568	3.21365999999999996106	-0.89946732343209001570	0.21138794955429998645	-0.93726986936968004205	
38	0	4.75504000000000015547	0.94256600000000001494	9.20077000000000033708	1.48594189344898008898	-0.95740904406390003878	-1.41421820323707003730	
39	1	4.74376999999999959812	9.98610000000000042064	7.55968000000000017735	1.13633744653218005105	1.22858937174728000130	0.30230582520637999666	
40	1	4.74969000000000018957	0.87160999999999999588	4.77690000000000036806	-0.60862494486120999326	-0.38074793721998001494	-0.16214523054711998951	
41	1	4.92354999999999964899	10.13630000000000030980	10.70079999999999920135	-1.03307912863509998580	-0.38938003411374999541	-0.12870353740434001266	
42	1	4.64017999999999997129	0.77383500000000005059	1.54668999999999989825	0.64074809704010005085	0.54299040976575996265	0.91914086359867996912	
43	0	6.24641999999999963933	1.78495000000000003659	3.18516000000000021330	-0.00626842667273999968	-0.83636660015091002229	-2.43583717777707997598	
44	0	6.45729000000000041837	3.56233999999999983999	9.12420000000000008811	-1.00317063674856998823	1.40197480982617994627	0.82067655126243999053	
45	1	6.40406999999999992923	1.81882000000000010331	7.53310000000000012932	-0.45868240173935997950	-0.62045397228248000410	0.20266751453998999022	
46	1	6.27906000000000030781	3.60963000000000011624	4.63600999999999974222	0.12449881948921999453	0.67896793734087002026	0.35378704725778997719	
47	1	6.46757000000000026319	1.75809999999999999609	10.72269999999999967599	-0.64048784092480004482	0.05405753576460999715	-0.02792420548139000133	
48	1	6.23331000000000035044	3.63350999999999979551	1.54239999999999999325	0.25118925888128001978	-0.28573901163622000832	0.14302130794337000741	
49	0	7.93787999999999982492	4.51393000000000021998	3.05338000000000020506	-1.75398455876179992785	0.04254774338132000233	0.39034685730156998273	
50	0	7.96717000000000030724	6.43632000000000026319	9.24840999999999979764	-2.21160696606342987991	-0.05512743379800000287	0.57383616853984997785	
51	1	7.97297000000000011255	4.67672000000000043229	7.69448000000000043030	0.05614755437565999846	-0.84215221351808999817	-1.03549600901523009000	
52	1	7.97004999999999963478	6.22487999999999974676	4.80227000000000003865	-1.17231712706626001186	0.51500878696423002534	-0.84348735497025995045	
53	1	7.97412000000000009692	4.56878999999999990678	10.72380000000000066507	-0.23786589822105000391	-0.23044034241836999777	0.80348878338314999592	
54	1	7.81254000000000026205	6.43074999999999974420	1.57265999999999994685	-0.06873033542890000236	-0.41393831406247000304	-0.16292462857411998955	
55	0	9.33139000000000073953	7.25872999999999990450	3.17561999999999988731	1.67103994285426993294	1.39580490604121010279	0.13285254404623000890	
56	0	9.51584000000000074238	9.15480999999999944805	9.09351000000000020407	1.04316092570007001861	-0.17447674656365000367	0.83503817130281998704	
57	1	9.39897999999999989029	7.19172999999999973397	7.66380000000000016769	1.40819568118760996001	1.25171953926965007220	-1.16953678427548002361	
58	1	9.42273999999999922750	9.21744999999999947704	4.75178999999999973625	0.29115643231892002207	-0.46086713038912002771	-0.85261228195334004543	
59	1	9.58150999999999974932	7.36434999999999995168	10.80799999999999982947	-0.16673202076752999257	-0.01875441508819000042	-0.52031430921747001683	
60	1	9.49407000000000067530	9.11926000000000058776	1.55008999999999996788	-0.76574101794363003126	-0.01586270380489999965	0.33338961341203998678	
61	0	7.84276999999999979707	10.10790000000000077307	3.14091999999999993420	0.18832679411746999776	-0.61337866759228998337	-0.77590572704254001657	
62	0	7.95516999999999985249	0.84145899999999995700	9.08319000000000009720	0.48352092518415001887	0.55630932988753001300	0.57496058240035996523	
63	1	7.92469000000000001194	10.05899999999999927525	7.57812000000000018929	-0.02841743412481999992	-0.32691653801071002272	-0.59129428350246004964	
64	1	7.72721000000000035612	0.85891600000000001280	4.76674000000000042121	0.88495909135554995384	-0.35745746693648000614	-0.39474173704635001636	
65	1	8.00900000000000034106	10.09430000000000049454	10.63620000000000054285	-0.24136379305461000411	-0.19975770981266000037	0.80799398604344996322	
66	1	7.83438000000000034362	0.82575399999999998801	1.46642000000000005677	-0.46129775904742997827	0.08107213953698000353	1.02475112675924995287	
67	0	9.32834000000000074238	1.71528999999999998138	3.12617000000000011539	1.12594702400421997623	0.37329509749600997548	-0.79598876722058997668	
68	0	9.51252999999999993008	3.62409999999999987708	9.18853000000000008640	0.28980916260271999407	-0.10533951578028999396	-0.23113587237097998894	
69	1	9.58744000000000085038	1.82054999999999989058	7.58127999999999957481	-0.53692905859216000231	0.00980773438102999946	-0.23479737274994999519	
70	1	9.27877999999999936165	3.44826999999999994628	4.69108999999999998209	1.45324266715362004909	1.10242748541392998618	-0.03386524006534000208	
71	1	9.53827000000000069235	1.79777000000000009017	10.76389999999999957936	-0.24230310336930999116	-0.18496624713957998676	-0.35407734091356002359	
72	1	9.50252000000000052182	3.55008999999999996788	1.47134999999999993570	-0.32817486108554000390	-0.08845478766344999633	0.65879502440957005138	
73	0	11.06070000000000064233	4.48754999999999970584	3.10184000000000015262	-2.49610074362513012503	-0.84235933860207001800	0.24014168418067999289	
74	0	11.07990000000000030411	6.39698999999999973198	9.18022999999999989029	-0.15404173977373999960	0.23026930164427000802	-0.56815940216473004298	
75	1	11.04160000000000074749	4.46448000000000000398	7.58819999999999961204	0.16105016386707998732	1.22349152444608000323	-0.52942024227652995094	
76	1	11.07760000000000033538	6.42914999999999992042	4.62091999999999991644	0.16351802360305001116	-0.55046532912734003062	0.05234212780221000200	
77	1	11.09220000000000005969	4.52564000000000010715	10.69480000000000075033	0.25170144684859002693	0.43178645422389000386	0.56618785046141995032	
78	1	10.83510000000000061959	6.28460000000000018616	1.61135999999999990351	1.37006181126402992732	0.90218930906640004697	-0.79889174595870005025	
79	0	0.06623850000000000571	7.24521000000000015007	2.99799000000000015476	-2.32971575364266980657	1.27914861151922010229	0.17076973627367000863	
80	0	0.05744939999999999769	9.33530999999999977490	9.15658999999999956287	-0.49410611025645001515	-1.24771012133701009184	0.00304441604210000001	
81	1	-0.11181299999999999573	7.49197000000000024045	7.52852000000000032287	0.72226002347717999097	-0.75171896858719000623	0.92113351751604000128	
82	1	-0.09931890000000000163	9.13289999999999935199	4.60125999999999990564	1.11520690905709995988	-0.27890521023453002103	0.08942918951386999438	
83	1	-0.00961368999999999939	7.47121000000000012875	10.67530000000000001137	0.45518255858091000166	-0.66654791943225999429	-0.12819858266764999621	
84	1	0.00420034000000000032	9.23590000000000088676	1.48124999999999995559	0.27957701006347002171	-0.63642409595711002535	0.29351164629620002389	
85	0	11.06630000000000002558	10.04219999999999934914	3.06594999999999995310	-0.84337535232012994513	0.58658705391994003797	0.83257638281619994469	
86	0	11.10740000000000016200	0.98024599999999995070	9.16241999999999912063	1.14112424605669993127	-1.23841439954762000397	-0.09796313623985999919	
87	1	11.12219999999999942020	10.15109999999999956799	7.57838999999999973767	-0.27971778242815997784	0.46920582594290999312	0.13443766696937001215	
88	1	11.05390000000000050306	0.93170399999999997664	4.61486000000000018417	-0.41389277716285000075	-1.24041871485982002632	0.51295766562246003506	
89	1	11.08220000000000027285	10.14140000000000085834	10.76370000000000004547	0.06074616106281000016	0.42755022516487001250	-0.85584410326070003983	
90	1	11.09120000000000061391	0.88325299999999995482	1.65355999999999991878	-1.04424613158954993075	-0.54984571616380994996	-1.51997629462191996552	
91	0	0.02026800000000000129	1.73781999999999992035	3.09116999999999997328	0.24920972775766001006	0.65109891648555995314	-0.09719093409201000344	
92	0	0.00845102000000000006	3.72359999999999979892	9.09303000000000061220	1.54122838569780995499	-1.10457390437103009084	-0.06851737815278000077	
93	1	0.17634199999999999875	1.80336999999999991751	7.45814000000000021373	-0.96239433060725998459	0.32642570427229999908	1.36977357017223000391	
94	1	-0.17030100000000000793	3.50845999999999991203	4.61357000000000017081	0.94319198662350001161	0.53910964397454996799	1.59223780114086999049	
95	1	0.13718600000000000239	1.92862000000000000099	10.66830000000000033822	-0.59921983867382999644	-0.83171748034028003538	-0.24399951678621001339	
96	1	-0.10227799999999999392	3.56271000000000004349	1.50581999999999993634	0.33915115490442998558	0.07126722235084000101	-0.10766637289967999347	
Energy
-80521.59214005329704377800
PlusStress:	xx	yy	zz	yz	xz	xy
-5.02657860679813417448	-19.97953816678950644814	-8.84515092952466197573	3.18099990602794990835	-3.18250660110390937163	-0.87499363821474585023
END_CFG

BEGIN_CFG
Size
96
Supercell
12.70497823448913	0.0	0.0
0.0	11.01725683785566	0.0
0.0	0.0	12.339754822053642
AtomData:	id	type	cartes_x	cartes_y	cartes_z	fx	fy	fz
1	0	1.51665999999999989711	4.49404000000000003467	3.20820000000000016271	1.33511810211092996070	0.83965172921728004063	-1.35241819146392994178	
2	0	1.57828999999999997073	6.38156000000000034333	9.20587000000000088562	0.38262784441588998385	0.48434225959326998590	-0.89658526103727997913	
3	1	1.51790000000000002700	4.41910999999999987153	7.65418000000000020577	2.21573353297418984553	1.66677978607774002207	-1.02685397293917990424	
4	1	1.51554999999999995275	6.43447999999999975529	4.72484000000000037289	-0.37703232878864001432	-0.53001198055257003894	-0.19628452841488000513	
5	1	1.52658000000000004803	4.62260000000000026432	10.84149999999999991473	0.08179970125046000240	-0.29148924570570000636	-0.26098478285621001804	
6	1	1.40189000000000008050	6.29901999999999961943	1.68908999999999998032	1.03070641327094003614	0.38525579363320999748	-1.05218892048866008437	
7	0	3.15167000000000019355	7.26377999999999968139	3.11705999999999994188	-1.61760562609448999005	-0.15584568866167999857	0.24666424095692998653	
8	0	3.12555000000000005045	9.19799000000000077648	9.24684000000000061448	1.16639584442910004825	0.27388249034998002340	-0.54438755564547003374	
9	1	3.20653999999999994586	7.42855000000000043059	7.61502000000000034419	-0.41004146546844999488	-0.72749171650805000144	0.51846651902693996483	
10	1	2.99770000000000003126	9.01379999999999981242	4.63856000000000001648	0.21371534165507000136	1.21185809271567990208	0.50576682807617001636	
11	1	3.21221999999999985320	7.31046999999999957964	10.82579999999999920135	-0.69467411310939997104	0.33582054255540000343	-0.49503175177751002067	
12	1	3.12620999999999993335	9.14358999999999966235	1.55940999999999996284	-0.63869993266943003718	-0.78199519578933995856	-0.65169362145902998140	
13	0	1.47428000000000003489	10.03529999999999944293	3.03907999999999978158	0.34846924191526001957	0.97589514098740004489	-0.60562753829822002505	
14	0	1.53949000000000002508	0.87242399999999997728	9.25867000000000039961	1.39940986272218004238	0.69898810075854000967	-0.25531596913728998866	
15	1	1.45446999999999992959	10.18500000000000049738	7.64344999999999963336	2.03262684318479980305	-0.44154243370157997273	-0.75850096845993997263	
16	1	1.59119999999999994778	0.93846700000000005115	4.59769999999999967599	-1.11366418151483004273	-0.85224327504624997065	0.54915003093079994834	
17	1	1.60986999999999991218	10.10979999999999989768	10.80419999999999980389	-0.50623432939296997279	-0.34633835603816998105	0.47735438563929999400	
18	1	1.52241000000000004100	0.88303600000000004311	1.43690000000000006608	0.29288914442882002520	-0.00562596352306999996	0.78128330205596996372	
19	0	3.14656000000000002359	1.77041000000000003922	3.12767999999999979366	-0.21454080914508000255	0.98994451952595996502	-0.61020614466978995161	
20	0	3.13230999999999992767	3.66795999999999988717	9.34821999999999952990	0.48467665155179001646	-1.05125578645955997104	-0.99808502470683002628	
21	1	3.19153000000000020009	1.75397000000000002906	7.75196000000000040586	-0.20939802645864999397	0.95466818464434999303	-0.00836801078301999991	
22	1	3.22201000000000004064	3.75407000000000001805	4.77782000000000017792	-0.69209244751466003631	-1.26624336769846990158	-0.42639512445387001138	
23	1	3.31035000000000012577	1.75310000000000010267	10.96969999999999956231	-0.80542835390806000184	0.57355697258567994723	-1.57356800037094002320	
24	1	3.17964000000000002188	3.66388999999999986912	1.60783000000000009244	-0.72824887420379003089	-0.25352997155543999241	-0.12353963132744999465	
25	0	4.68644000000000016115	4.62174999999999958078	3.12803999999999993165	1.18457063635910997412	-0.16024165324965000679	-0.57136606632959996421	
26	0	4.71068999999999959982	6.39935999999999971521	9.22256999999999926843	0.56010148764931000365	-0.48292024021099999587	0.19821333102291999184	
27	1	4.73073999999999994515	4.49532000000000042661	7.62497000000000024755	-0.22051736169554000955	0.34941260719450001337	0.88311287432573004619	
28	1	4.70864999999999955804	6.33542999999999967287	4.81561000000000039023	-0.28047504913235998814	0.28233332281909001571	-0.78867072497253998264	
29	1	4.64740000000000019753	4.60921999999999965070	10.92820000000000035811	1.18500098787985996829	-0.29605928538358999846	-1.37057501393908998111	
30	1	4.62621000000000037744	6.47248000000000001108	1.49028000000000004910	0.56522608295521004074	-1.09577303729199004856	0.16956027838602999447	
31	0	6.21349999999999980105	7.20964999999999989200	3.15297999999999989384	0.63443176949581003843	0.78359473460144002388	0.44022492306680000018	
32	0	6.46677999999999997272	9.26530999999999949068	9.18125000000000035527	-1.65931462251526995466	-1.14162586341089000719	1.64176867879487997648	
33	1	6.36012999999999983913	7.37082000000000014950	7.84196999999999988518	-0.24611626492072000150	-0.26051314233203998194	-2.25327150006138987592	
34	1	6.17886000000000024102	9.01539000000000001478	4.78969000000000022510	0.23941562933023000093	0.61090206984382999789	-1.05324138089752006309	
35	1	6.42387999999999959044	7.18977000000000021629	10.73049999999999926104	-0.50196194576439001622	1.49065477177233995931	0.84883268263610001103	
36	1	6.21351000000000031065	8.95341999999999949011	1.53245999999999993335	-0.07811674244824999558	1.17289021478097010842	0.63714008128816002063	
37	0	4.62535999999999969390	9.99752999999999936165	3.12525999999999992696	0.57576006934938994686	0.11780555893961000558	0.41273128238308998128	
38	0	4.87492999999999998550	0.95980699999999996574	9.21772999999999953502	-0.70280261705837998587	-0.62231328723305001649	1.31452172681578005609	
39	1	4.72118999999999999773	10.21340000000000003411	7.65641000000000016001	0.42113006258737001319	-0.94491030023391997528	0.15406270875719998981	
40	1	4.62208000000000041041	0.78046300000000001784	4.75006000000000039307	0.55714949469619001743	0.51671605060560998890	-0.87324306771613002809	
41	1	4.80890000000000039648	10.13160000000000060538	10.79190000000000004832	0.21820903928262000426	-0.22992954482791000403	-0.42299742202584000861	
42	1	4.48681999999999980844	0.77509399999999994968	1.46004000000000000448	1.48812008201039991384	0.12879868260034998961	0.64653475792597003835	
43	0	6.17710999999999987864	1.74611999999999989441	3.01164999999999993818	0.14739975960373000174	0.13220826988060999096	-0.17509624150093000550	
44	0	6.45875000000000021316	3.59162999999999987821	9.07685000000000030695	-1.96382501961362998522	0.51155887337648997537	1.58201797808887989483	
45	1	6.48055000000000003268	1.70724999999999993427	7.61434000000000033026	-0.40000262711217998701	0.33533341353175999400	-0.55498394225361002974	
46	1	6.37328000000000027825	3.66307999999999989171	4.57104999999999961346	-0.15609242407963000443	-0.56642211072794002025	0.04397864517866000023	
47	1	6.53692999999999990735	1.81496999999999997222	10.76970000000000027285	-0.11952992614445000219	0.01440593708049999963	-0.57113319896367997774	
48	1	6.24214999999999964331	3.67776000000000014012	1.43206000000000011063	0.44496777247127999866	-0.20389226257747000703	1.17367252069337002496	
49	0	8.03350999999999970669	4.54546999999999989939	3.06488000000000004874	-2.11227409591906978292	0.78256673501662998849	-0.83303994171444994965	
50	0	7.99448000000000025267	6.38468999999999997641	9.21278000000000041325	0.62510405718176997869	-0.67027790245824003801	-1.20602687036366007511	
51	1	7.87180000000000035243	4.59626999999999963364	7.49127999999999971692	0.81429635990905002707	0.01193671008483000034	0.41019845679881999923	
52	1	7.92426000000000030354	6.44444999999999978968	4.75302000000000024471	-0.06532799659304000528	-0.65192246415961996320	-0.85411601821644000943	
53	1	7.99587000000000003297	4.53080000000000016058	10.59220000000000005969	-0.58832730798665999750	-0.02222380859782999846	2.09197641441310988597	
54	1	7.84142000000000027882	6.42898000000000013898	1.57533999999999996255	0.58391356145095996144	-0.13289896222573999163	0.18809343513529999670	
55	0	9.47716999999999920590	7.43538999999999994373	3.16717000000000004079	-1.02319526453735010207	-2.66188614540853007995	-1.38055131369181993684	
56	0	9.49560999999999921783	9.09937000000000040245	9.15981000000000022965	2.25258519305091997609	-0.34601207557514002122	-0.88798320390523000079	
57	1	9.52978000000000058378	7.19064999999999976410	7.55346999999999990649	-0.43130361574575998285	1.08029686385327994280	-0.51861076266706995774	
58	1	9.46096999999999965780	9.15268000000000014893	4.66776999999999997470	-0.01831441881366999841	1.44802379965000005413	0.26817720336132000458	
59	1	9.76778000000000012903	7.19202000000000030155	10.67099999999999937472	-1.48708907459943007190	0.72595961881376003255	0.53381251631197002006	
60	1	9.26075999999999943668	9.14255999999999957595	1.50624000000000002331	0.69365247489174997053	0.19300313900207000106	-0.32492684508118002684	
61	0	7.77289000000000029900	10.05770000000000052864	3.12867000000000006210	-0.00091953227862000004	-2.05929613106816988832	-0.66749312500708002371	
62	0	8.06044999999999944862	0.79595300000000002161	9.13860999999999989996	-0.20915913934095001214	0.86032118101790000519	1.42745385113206002536	
63	1	8.02856000000000058492	9.93430999999999997385	7.55926000000000009038	-0.31277144456798999794	1.06244863013168000521	-0.57086653406887999385	
64	1	7.74781000000000030781	0.82660299999999997667	4.53971000000000035612	0.46278699063626999033	1.38432243944380006795	1.37601281530956010002	
65	1	8.09731999999999985107	10.06780000000000008242	10.75820000000000042917	-0.72977066565796999686	-0.24104560475242001183	0.45607130798563000340	
66	1	7.80358999999999980446	0.74711499999999997357	1.47428000000000003489	-0.22937019137726999407	1.09943597267532000572	0.36633321909417998485	
67	0	9.43763000000000040757	1.87502999999999997449	3.08967999999999998195	-0.53215248318983998654	-2.13916015202952980445	-3.16389121622342006646	
68	0	9.53603999999999984993	3.64388999999999985135	9.15155999999999991701	0.08318875918132999370	-0.17742649269547000612	-0.73528243545519000879	
69	1	9.43234999999999956799	1.89054999999999995275	7.61678999999999994941	1.41296399812257988948	-0.82862871128718995628	-1.01131785296761989024	
70	1	9.63447999999999993292	3.61865000000000014424	4.49200999999999961432	-0.51208488791817996511	0.78041486994137998501	2.23280309783830022141	
71	1	9.69793999999999911665	1.86173999999999995048	10.80860000000000020748	-0.88910897540365996239	-0.43137137469685998825	-1.00200666796885995424	
72	1	9.45373999999999981014	3.63547000000000020137	1.32181999999999999496	0.27281820728879002669	0.03591380769009999696	1.08958286394776004968	
73	0	11.08619999999999983231	4.56831000000000031491	2.93237000000000014310	0.27644676090884001685	-0.68425761511741001186	-0.05775809983038000112	
74	0	11.14029999999999986926	6.36993999999999971351	8.98254999999999981242	1.45558723416347990387	-0.05133644781697999787	1.89987112303178995454	
75	1	11.10410000000000074749	4.47538000000000035783	7.55761000000000038312	0.58456804825049002439	-0.03034443054106000098	-0.35007390368586999152	
76	1	11.01999999999999957367	6.32819999999999982521	4.66788000000000025125	0.02615070450283000017	0.01121890758740000035	0.01873672481383999860	
77	1	11.12620000000000075602	4.53596000000000021402	10.65070000000000050022	0.46770138537743000118	0.50736771310564998672	0.10012447479875999368	
78	1	10.99140000000000050306	6.43966999999999956117	1.51574999999999993072	-0.03271288064964000125	0.36801220889500002587	-0.39536768540818001405	
79	0	-0.17230200000000001070	7.25168999999999996930	3.12632000000000020989	0.98214679856483000364	2.37705411316441983516	-0.25118556329498997748	
80	0	0.09813760000000000538	9.18225999999999942247	9.15976999999999996760	-2.47518757528293020798	-0.66777790798678005046	1.08539566822279009983	
81	1	0.00629751000000000009	7.41000999999999976353	7.49730000000000007532	0.61536224762100000252	-0.52259965555969001283	0.63168372145755002922	
82	1	-0.14578099999999999392	9.31231000000000008754	4.53479999999999972005	-0.42091702652118001549	-1.35497187817294006962	0.43788641576637998831	
83	1	0.03015680000000000097	7.28218000000000031946	10.78449999999999953104	-0.37775739149398002148	0.27694595480903999585	-1.14970811561434005377	
84	1	-0.15165799999999998726	9.22680000000000077875	1.35400999999999993584	0.44842115179764002741	-0.99711245151634997352	0.92434564049243994610	
85	0	10.96039999999999992042	10.10430000000000028137	2.91353000000000017522	0.00427401675807000028	-0.64792268304906996956	0.59086239296829001777	
86	0	11.17140000000000021885	0.94788099999999997358	9.11016000000000047976	-1.08321704827321996234	0.38182351032465000618	0.53678703466407995393	
87	1	11.21299999999999918998	10.20470000000000077023	7.54527000000000036550	-0.70534891279019995558	-1.43715943148620994840	0.52091071305251002155	
88	1	11.00290000000000034674	0.80211600000000005117	4.47841999999999984539	0.46854222352025998166	1.08218089223701996460	1.34619312822238001992	
89	1	11.07380000000000030980	10.09479999999999932925	10.64480000000000003979	0.79444444615752995986	-0.11865905816517000049	0.27958465823556999386	
90	1	11.02950000000000052580	0.96419200000000004902	1.46510999999999991239	-0.10825247382816000075	0.19979797527713999417	-0.22964682921480000788	
91	0	-0.02080689999999999970	1.84241000000000010317	3.02486999999999994770	-0.57148168308292002227	-1.03258545692591008347	-0.35391436609532000990	
92	0	0.09747240000000000071	3.62098999999999993094	9.14911000000000029786	-2.78506151674839008692	-0.78760089222601004089	0.77675905819407997654	
93	1	-0.02749359999999999998	1.71303999999999989612	7.46776999999999979707	0.85911627432482995381	0.93885195769497997720	0.96292505301298003673	
94	1	-0.08995300000000000518	3.62997000000000014097	4.56362999999999985334	-0.64610684808707996574	-0.28470858770729001730	1.32519824048147993878	
95	1	-0.00688850999999999960	1.85844999999999993534	10.71659999999999968168	-0.05351734032930000051	-0.33802251168676000770	0.70341707949566001368	
96	1	0.10943600000000000549	3.59000999999999992340	1.40622000000000002551	-0.65257741147088998979	0.58026742154404997720	0.60812682313632004938	
Energy
-80520.00835211979574523866
PlusStress:	xx	yy	zz	yz	xz	xy
-4.22183356783306606985	-6.77696979671797272715	-3.71669636840113870591	1.76031578307122438254	-23.61144252097295392900	1.64299332664833275253
END_CFG

BEGIN_CFG
Size
96
Supercell
12.651300190115936	0.0	0.0
0.0	10.99829859401026	0.0
0.0	0.0	12.511537524579564
AtomData:	id	type	cartes_x	cartes_y	cartes_z	fx	fy	fz
1	0	1.51198999999999994515	4.66342000000000034277	2.96195999999999992625	-0.15606174543570999758	0.64686824699840994590	-1.29532194775653008989	
2	0	1.58037999999999989598	6.31641999999999992355	9.34329999999999927240	-0.92678290442540001148	0.30817737509867998424	-0.96598648582676005514	
3	1	1.56716999999999995197	4.42243999999999992667	7.72452999999999967429	0.41511448709221998588	0.61760256532811996788	-0.02850798584879999861	
4	1	1.58108000000000004093	6.53910999999999997812	4.44592999999999971550	-0.22693988480235000038	-0.50125825290710002147	0.98440219629134995127	
5	1	1.63396999999999992248	4.47344999999999970441	10.76900000000000012790	-0.03016873783912000020	-0.44147184841682002299	1.00388749299046997621	
6	1	1.56136999999999992461	6.58338999999999963109	1.31352000000000002089	0.01374748851919000044	-0.70017537994746004149	0.58961862088976002561	
7	0	3.14875000000000015987	7.40510999999999963705	2.92111000000000009535	0.54683055972463001648	0.20284492129314998787	-0.28547905069024998026	