BEGIN_CFG
Size
96
Supercell
12.637129544153112	0.0	0.0
0.0	10.938609087069587	0.0
0.0	0.0	12.350283618398734
AtomData:	id	type	cartes_x	cartes_y	cartes_z	fx	fy	fz
1	0	1.58654000000000006132	4.50321999999999977859	3.05634000000000005670	-0.49555678020115001559	0.70111794125991999671	-0.46868561510958001159	
2	0	1.55794999999999994600	6.37378999999999962256	9.29588000000000036493	0.17622282587526999498	0.02474268330867999965	-1.34605407936387000412	
3	1	1.55288000000000003809	4.52099000000000028621	7.74852000000000007418	-0.26763550350823001045	0.25771794713890000539	-0.13851242135454000515	
4	1	1.61095000000000010409	6.44763000000000019440	4.54171999999999975728	0.05139441507779000246	-0.60956794142461001584	0.40130010964907997240	
5	1	1.52442000000000010829	4.55522999999999989029	10.86930000000000084981	0.08564672767429000466	0.15890191979974999104	0.20229028487489000843	
6	1	1.59169000000000004924	6.40810999999999975074	1.43283000000000004803	-0.42240206970518001661	-0.53489660498711000258	0.21053570734086998750	
7	0	3.18381999999999987239	7.25319000000000002615	2.94947999999999987963	0.65449237652329994575	0.86328456021393995545	1.91164557998897000068	
8	0	3.18276000000000003354	9.11656999999999939632	9.16596000000000010743	-0.49225389603170000008	0.25720986678004997827	0.11693019916317999585	
9	1	3.22765000000000013003	7.24005000000000009663	7.64118999999999992667	-0.44627930051622000107	-0.10974560821133999555	0.68744839505377997035	
10	1	3.18903999999999987480	9.19345999999999996533	4.64595000000000002416	-0.28314760798452998092	-0.91815359554440001411	-0.56111591709442998344	
11	1	3.03209999999999979536	7.41258999999999979025	10.85200000000000031264	1.14057479488180990579	-0.60872617276860996327	-0.22780464595962998664	
12	1	3.12203000000000008285	9.17276000000000024670	1.55932000000000003936	0.21650478274200998796	-0.30829048195385999609	-1.23930211019100000591	
13	0	1.53519999999999989804	10.00510000000000054854	3.08524999999999982592	0.44910198231046000172	1.44760142206779995888	0.48940313110831001886	
14	0	1.56152000000000001911	0.94981899999999996886	9.20722999999999913712	-1.65277981434345999645	-0.02783582191024000160	-0.34026226860059000101	
15	1	1.58140999999999998238	10.01570000000000071338	7.59574000000000015831	0.28084339330034002735	0.45800107070951001642	-0.20087456923760999006	
16	1	1.65305999999999997385	0.97842899999999999316	4.57652000000000036550	-0.27769705124711002719	-0.62400209937786998982	0.28711187196035997671	
17	1	1.56310999999999999943	10.07429999999999914451	10.67130000000000045191	0.17111036796664999549	-0.65349638699298995270	0.82244448634082001348	
18	1	1.56529000000000007020	0.90272300000000005316	1.46225000000000004974	-0.05952182464315999844	-0.29538038995447002399	0.23745723810499000384	
19	0	3.24413999999999980162	1.74703000000000008285	2.95891999999999999460	-0.20826862705922000174	1.36323150007884996704	0.95052510714288995786	
20	0	3.14020000000000010232	3.68157999999999985263	9.28623999999999938382	0.25790402527053002402	-0.04890331441553000258	0.24290949995901001124	
21	1	3.10409999999999985931	1.87572999999999989740	7.74908999999999981156	0.67239553155969000731	0.16860686988184001023	-1.17156802994586994870	
22	1	3.17066999999999987736	3.59080000000000021387	4.58720999999999978769	0.26540268980379999597	-0.07681752482855999653	-0.30981257078622997936	
23	1	3.06535000000000001918	1.84654000000000007020	10.78560000000000052012	0.36233907508094997940	0.04097423316996000320	1.13218622791563006125	
24	1	3.23078000000000020719	3.66652999999999984482	1.42012000000000004896	-0.92430307035073000499	-0.67908998884653004602	-0.03582554487457000059	
25	0	4.73038000000000025125	4.53399999999999980815	2.97047000000000016584	0.73411410904123997057	0.03720455857658999665	0.97930402575571995349	
26	0	4.79636999999999957822	6.39282000000000039108	9.30240000000000044622	-1.63283497816378009304	0.11124111710329000202	-0.85052977317506994748	
27	1	4.81735000000000024301	4.45370000000000043627	7.71020000000000038654	-0.65526662631636001244	0.99884647183247998736	0.17102414378510000237	
28	1	4.78329000000000004178	6.32831999999999972317	4.65714999999999967883	-0.74217710792012003829	-0.20334299533099001178	-0.83383418989958002498	
29	1	4.71023000000000013898	4.62833999999999967656	10.88909999999999911324	0.48761187257922999905	-0.56690159720546995370	-0.19926613084452998725	
30	1	4.78366999999999986670	6.36378999999999983572	1.39783999999999997144	-0.28122329279288998949	-0.14578993201140999503	-0.03374777195497000171	
31	0	6.28014000000000027768	7.22792000000000012250	3.04307999999999978513	0.80937307689788995368	0.13462363328564000420	-0.52266645774525999357	
32	0	6.37347000000000019071	9.14547999999999916554	9.20210999999999934573	-0.31786327932146002384	-0.26326602041593999415	-0.24628041934250000100	
33	1	6.22440000000000015490	7.33443999999999984851	7.61758999999999986130	0.70503471362011005397	-0.05949930655154000297	0.26720888027218997474	
34	1	6.16293999999999986272	8.99806000000000061334	4.56554000000000037573	1.19187916999037990529	0.77197076436254996601	0.85107986296314996899	
35	1	6.34304999999999985505	7.34398000000000017451	10.80530000000000079297	0.37328343308592998318	0.09661930099512000547	0.10197100059486000068	
36	1	6.21525999999999978485	9.10577999999999931902	1.48292000000000001592	1.01700808273676002180	-0.25756711690126998793	-0.26453054711756002204	
37	0	4.75706000000000006622	10.09120000000000061391	3.02080999999999999517	-1.05305786597027006835	-1.12909820576371999756	0.44276508405608999697	
38	0	4.71056000000000008043	0.98283100000000001017	9.30629000000000061732	0.39659228099169002713	-0.63139125234413995269	-0.67182747522932995121	
39	1	4.70870999999999995111	10.12749999999999950262	7.64339000000000012847	0.61560296100817002429	-0.09134753003086999723	0.12421652545434000436	
40	1	4.83666000000000018133	0.81720599999999998797	4.69047000000000036124	-0.37074627919009001120	0.97593091354813998883	-0.73014443021915997889	
41	1	4.79026999999999958391	10.03079999999999927240	10.71149999999999913314	-0.47907266718419999618	-0.07987235415412000106	1.02313773434886989833	
42	1	4.79434999999999966747	0.89574600000000004218	1.36911999999999989264	0.20179046632648001136	-0.01351236269839000033	0.24387159318747000936	
43	0	6.36929000000000034021	1.73493999999999992667	3.03490999999999999659	0.10802825718788000575	0.28374243124546999484	-0.03782424709299000293	
44	0	6.36361000000000043286	3.66358000000000005869	9.29473999999999911381	-0.44420515929745002515	-0.45944421944655000623	0.19683431766205000679	
45	1	6.35264999999999968594	1.78116000000000007653	7.77069999999999971863	-0.30746675751637997376	0.48369617145034998762	-0.37306649613909997898	
46	1	6.26433000000000017593	3.54992000000000018645	4.55332000000000025608	0.46896722313894001477	0.59476282528893997803	0.21590836227720000551	
47	1	6.35726000000000013301	1.79784000000000010466	10.90719999999999956231	-0.28264350137302002297	0.30009220030507999244	-0.28147828222120002684	
48	1	6.37769999999999992468	3.56333000000000010843	1.44040999999999996817	-0.14378277029177000124	0.38131125002161997406	0.33886517471575000604	
49	0	7.92977000000000042945	4.56503999999999976467	3.05567000000000010829	-1.50731417838252990116	-0.37527626198551000680	-0.83643784473236004740	
50	0	7.87898000000000031662	6.43370999999999959584	9.16455000000000019611	0.60123892292676994753	0.05652828249684999778	-0.10995611865325000123	
51	1	7.83706999999999975870	4.58642000000000038540	7.56977000000000010971	-0.06831554965439000371	0.01284773559787999973	0.68394786113289995910	
52	1	7.96032000000000028450	6.35245999999999977348	4.60034000000000009578	-0.41890022554407002620	0.40509016179140000524	0.11513844399144000652	
53	1	7.93168000000000006366	4.62947000000000041808	10.79340000000000010516	-0.41595017064632999748	0.50755900399151998581	0.34248577383763001425	
54	1	7.92684000000000033026	6.39114999999999966462	1.45758999999999994124	-0.20300405127647000447	-0.23327397314768999470	-0.11395401726062000247	
55	0	9.53115000000000023306	7.24336000000000002075	2.99804000000000003823	-0.76408038980958004061	1.59349670030956991340	1.03463438194616008658	
56	0	9.62592000000000069804	9.08282999999999951513	9.16543000000000063210	-1.76376898083565003539	1.17682646396087009499	-0.41290562160494997945	
57	1	9.50306999999999924000	7.30013999999999985135	7.48998999999999970356	-0.26413678640701998557	-0.00383004260975999995	0.89978215363348001965	
58	1	9.47752000000000016655	9.09556000000000075545	4.63712000000000035271	-0.05344533827544999810	-0.06092747296061999662	-0.72471468854342002697	
59	1	9.56418999999999996930	7.36191999999999957538	10.72550000000000025580	-0.61773546898359998902	-0.98571203594241996182	0.14734264171992000891	
60	1	9.36407999999999951513	9.18411000000000043997	1.47853999999999996540	0.81049651141682999000	-0.69619312519660003780	-0.00404218465502999974	
61	0	7.85320000000000018048	9.99356000000000044281	3.09229999999999982663	0.05546345430414000022	0.54523933599606000389	-0.25239368637611997448	
62	0	7.90990999999999999659	0.87336199999999997168	9.30477999999999916270	0.07744386276407000391	0.43429820179516998024	-0.31998127826847999611	
63	1	7.94153000000000020009	10.07199999999999917577	7.64472000000000040387	0.18285696255358999118	-0.50680054006275998546	0.20867962655024999141	
64	1	8.06071999999999988518	0.91980499999999998373	4.69127999999999989456	-1.14868233552006993037	-0.38605716563119002460	-0.75097867598662004784	
65	1	8.01834999999999986642	9.95509999999999983800	10.83159999999999989484	-0.11800859057550000530	-0.00106954204836999999	-0.53372224402621004646	
66	1	7.95413999999999976609	0.92438900000000001622	1.41164000000000000590	-0.07292826256739999569	-0.61963078801533000295	0.91045432578411999991	
67	0	9.53848999999999946908	1.81468999999999991424	3.03967000000000009408	-0.94846658928117000276	0.89225234000429998193	-0.24665435374176999939	
68	0	9.38699000000000083332	3.71485000000000020748	9.20560000000000044906	0.78957490944473995853	-0.86414976916075003643	-1.20094445998771992556	
69	1	9.36706000000000038597	1.75046999999999997044	7.58642000000000038540	0.34829736118144000168	0.76523921045580001188	1.02998534498977001306	
70	1	9.41796000000000077534	3.73381000000000007333	4.60508999999999968367	1.11862887865302007562	-0.86267071565260999844	0.31054539213938997522	
71	1	9.45037999999999911438	1.96110000000000006537	10.77779999999999915872	0.04966499529274000235	-1.03253191616069006642	0.41768688794450997692	
72	1	9.44899000000000022226	3.66204999999999980531	1.49129000000000000448	0.57851988711512003505	-0.04678366831036000206	-0.38009207786062998435	
73	0	11.08109999999999928377	4.57294999999999962625	3.01235000000000008313	0.14300728578353999465	-0.11550707324704999335	1.00682425986769996662	
74	0	11.04090000000000060254	6.37445000000000039364	9.12052000000000084867	-0.57058598310804997666	-0.34450763590601002351	0.39155823301233000366	
75	1	11.00420000000000086970	4.53416999999999958959	7.63980000000000014637	0.25972788993223000498	-0.31603244473457997588	-0.02749436666090000064	
76	1	11.06460000000000043485	6.40505000000000013216	4.68201000000000000512	0.36170935827700001486	-0.14136809864426000405	-1.00672391133313010592	
77	1	10.95720000000000027285	4.57667999999999963734	10.79739999999999966462	0.00885932295628000070	0.51018509878519002765	0.19614864705619999841	
78	1	11.06910000000000060538	6.40268999999999977035	1.45548000000000010701	0.65997706412715995139	-0.09779464670821000349	-0.22931504836050001228	
79	0	0.00946375999999999988	7.37129000000000011994	3.05411000000000010246	-0.60269733066603004001	-0.90899657445983994553	0.33875550080802002695	
80	0	0.00029105500000000002	9.12405000000000043769	9.12284999999999968168	-0.37857690623916001593	-0.18230144980109999620	0.27256085858874001815	
81	1	0.01575429999999999886	7.20167000000000001592	7.60085999999999994969	0.47372665479913000919	0.54852016769421996223	-0.07908663937484999851	
82	1	-0.13595099999999998852	9.27730999999999994543	4.66633999999999993236	0.88190868157458002230	-1.08847260490896990959	-0.25709974821309999893	
83	1	-0.11177199999999999636	7.26916000000000028791	10.70369999999999954809	0.63138862194687994656	0.57751577052532998557	0.69526743337830998470	
84	1	0.07493170000000000386	9.11191999999999957538	1.48265000000000002345	-0.96141178007929994909	0.46356458446368997706	-0.57998163505147004582	
85	0	11.04209999999999958220	10.10210000000000007958	2.99904999999999999361	-0.32756138293738001899	-0.91483639973427999248	-0.13727437685850998883	
86	0	10.98019999999999996021	0.89665099999999997582	9.22218999999999944350	0.64132752662006997646	0.12404768022251000392	0.04700791326747000287	
87	1	11.06230000000000046612	10.07339999999999946567	7.49870000000000036522	0.32647711645422000659	-0.07112881952713000222	1.01914413338516007812	
88	1	11.07370000000000054285	0.93616699999999997139	4.58589000000000002188	-0.18961252851478999082	-0.21618365501997000022	0.88513728913478995075	
89	1	11.13579999999999969873	9.97602000000000010971	10.85590000000000010516	-0.16573054964480998796	0.38635942574217002621	-1.12228368582163007261	
90	1	11.04739999999999966462	0.97352700000000003122	1.39693000000000000504	0.33762505093092998187	-0.30718843274668999888	0.32709729249998997780	
91	0	-0.03061780000000000057	1.80929000000000006487	3.08347000000000015518	0.94317414420000000863	1.19460932858884993912	-1.12160308309968992369	
92	0	-0.08724800000000000610	3.62855999999999978556	9.34403999999999967940	0.46784363764649999906	0.67657499872727999701	-1.62159414878934993176	
93	1	-0.15240500000000001268	1.92037999999999997591	7.66840999999999972658	0.75853717504786000170	-0.66345166628731000458	0.28928574008252000427	
94	1	-0.04251259999999999761	3.65079000000000020165	4.76787000000000027455	0.32545561403966000169	0.02433944254432000159	-1.71218979305312002381	
95	1	-0.07203489999999999893	1.82489999999999996660	10.85730000000000039506	0.05806932152884999865	-0.62162068584092000645	-0.30851570131645000838	
96	1	0.01033700000000000070	3.60117999999999982563	1.41202999999999989633	0.01688036368823999864	0.25371044240409001969	0.95710870470270004162	
Energy
-80523.88880534769850783050
PlusStress:	xx	yy	zz	yz	xz	xy
3.52646498644194439365	1.48686295421588421384	-11.83422727368093241296	-4.53017949991490187500	-1.37990974774537433767	0.27553008485780394743
END_CFG

BEGIN_CFG
Size
96
Supercell
12.72475115137831	0.0	0.0
0.0	10.980733697577438	0.0
0.0	0.0	12.224470759846506
AtomData:	id	type	cartes_x	cartes_y	cartes_z	fx	fy	fz
1	0	1.60802000000000000490	4.50009000000000014552	3.07122999999999990450	0.78777534229912005159	0.83400684935168001299	-0.07271216141842000436	
2	0	1.53432999999999997165	6.33025000000000037659	9.12570999999999976637	-0.57613698534180002309	1.62941251650428009512	-0.00200089605174000014	
3	1	1.47313000000000005052	4.61690000000000022595	7.48402999999999973824	-0.04266093137675999736	-0.97726754910644997310	0.70281247165792004594	
4	1	1.64246000000000003105	6.55522999999999989029	4.65469000000000043826	-0.19151204191567000601	-1.55033464560502998175	-0.36507142244701001887	
5	1	1.41961000000000003851	4.58739999999999970015	10.64259999999999983800	-0.32216043795424997853	-0.60279950276851002045	1.35437736891906990166	
6	1	1.77051000000000002821	6.33518000000000025551	1.46537000000000006139	-1.13251054950159990575	0.45241995495568998464	1.04463644878505990121	
7	0	3.29679000000000010928	7.37762999999999991019	3.09014999999999995239	-0.84753791133361000565	0.06860349013465000256	-1.45755446409445998945	
8	0	3.11183999999999993946	9.15564999999999962199	9.17342999999999975103	0.00956300672858000078	-0.79401631803090000350	0.62456484164984005236	
9	1	3.22940000000000004832	7.31043999999999982720	7.67299000000000042121	-0.44869659230788999649	-0.35826807406334998385	-0.41006757307824998060	
10	1	3.09650999999999987367	9.12710000000000043485	4.63515000000000032543	0.46648755640775002584	0.76352991041476003797	0.11234344677228000342	
11	1	3.11552000000000006708	7.31165000000000020464	10.74469999999999991758	-0.32857815148435998154	-0.10228245299438999683	-0.00419039075733000036	
12	1	3.20064999999999999503	9.36020000000000074181	1.48381999999999991680	0.29361989452315001570	-1.71908103205482998277	-0.29132456490660002535	
13	0	1.57672999999999996490	10.08699999999999974420	2.98044999999999982165	0.26987195077407999388	0.27841125299164998230	1.53847142743253995079	
14	0	1.57973000000000007859	0.86566900000000002180	9.15137000000000000455	-1.73515308376449994832	-0.38051647287702000666	0.59974864666440996785	
15	1	1.52740999999999993442	10.04809999999999980957	7.66493000000000002103	-0.32769117630698002541	-0.53950575676114997936	-1.00541271551048994048	
16	1	1.57848999999999994870	0.95826000000000000068	4.62401999999999979707	0.52055197055569002451	-1.12726782292199989577	0.52540331002311002617	
17	1	1.45070999999999994401	9.94533999999999984709	10.81700000000000017053	0.22988265659348000591	0.61944537942529998009	-0.93010667981496997214	
18	1	1.65525000000000011013	0.93620400000000003615	1.46021000000000000796	-0.27782724762927002438	0.02553908630852000025	0.14704623853125001198	
19	0	3.19371999999999989228	1.85583000000000009067	3.11583999999999994301	-0.05443055829125000022	-0.03568126988680000305	-1.00829237462679000004	
20	0	2.96852999999999989100	3.60214999999999996305	9.23384000000000071395	1.98388191086270992969	0.04127713827330999757	-1.94674118179737010159	
21	1	3.10515000000000007674	1.76509999999999989129	7.54955999999999960437	-0.29137862607608000509	0.50325278740051004878	0.24689468126711999751	
22	1	3.25957000000000007844	3.66801000000000021473	4.64255999999999957595	-0.18911348178758000116	0.74997988102950996492	-0.32996203795297002204	
23	1	3.12980999999999998096	1.70073000000000007503	10.71470000000000055707	-0.39412879619347002125	0.77295231780440998293	0.68201009259804001861	
24	1	3.22980000000000000426	3.65045000000000019469	1.46274999999999999467	-0.24318650170339001226	0.19032946191680000236	0.39636530541426001628	
25	0	4.78751000000000015433	4.74678000000000022141	2.96622999999999992227	-0.36765725191677001149	-0.92918902215720999838	1.86236857567350000409	
26	0	4.72175999999999973511	6.31435999999999975074	9.28363000000000049283	-0.43090030814273000415	0.41850856772187999821	-1.13959324130711991963	
27	1	4.60853000000000001535	4.49342000000000041382	7.59271999999999991360	-0.03063620548036000146	0.34304401038839998916	1.05234653336898009712	
28	1	4.87934999999999963194	6.48071999999999981412	4.67398999999999986699	-0.64837140420637995319	-0.19063808786004998730	-0.31682935745446000331	
29	1	4.60442000000000017934	4.54162999999999961176	10.85069999999999978968	-0.10140816002487999803	-0.62022435913028994836	-0.41535643187995002767	
30	1	4.87811000000000039023	6.64318999999999970640	1.34312000000000009159	-0.61304355014207001506	-0.96662182267704999106	1.25217521529526010227	
31	0	6.40613000000000010203	7.32828999999999997073	3.08267999999999986471	-0.09991249911692000329	1.01877085605430006687	0.05540364704347999769	
32	0	6.33603000000000005087	9.10291999999999923432	9.11124000000000044963	-1.24558904203981990477	0.04046204815419000150	2.53484891228854980483	
33	1	6.31392000000000042093	7.20478000000000040615	7.68045000000000044338	0.07976737428202000657	0.24121597614029999246	-0.46396996716858002197	
34	1	6.41014999999999979252	9.22662000000000048772	4.77446999999999999176	-0.10333753472612999813	-0.73756787517910005203	-0.87545188284932995426	
35	1	6.24176999999999981839	7.22111000000000036181	10.84919999999999973284	0.96403496511036002037	0.77417261586131003170	-0.93536715065966002935	
36	1	6.41204000000000018389	9.14611000000000018417	1.54567000000000009940	-0.16313958998590000204	0.42424362816019001166	-0.05401903020313000153	
37	0	4.78826999999999980417	10.03749999999999964473	3.11803000000000007930	0.25760942926935997965	0.37642509717416999804	0.07877359211128999450	
38	0	4.65636999999999989797	0.86224999999999996092	9.13297000000000025466	0.60395001364133005239	-0.41078162051312000491	-0.01078283617413999980	
39	1	4.76482999999999989882	9.98550999999999966406	7.56242999999999998550	-0.50787803058556002522	0.20724508710774000586	0.05385256851706000242	
40	1	4.74626000000000036749	0.88396699999999994724	4.57648000000000010346	0.64190341995774002903	0.62268950654011001600	1.43664251656063002294	
41	1	4.59761000000000041865	10.06329999999999991189	10.78400000000000069633	1.16154531631887003584	-0.33693675074161999472	-0.77635474902029000255	
42	1	4.82932000000000005713	0.95336200000000004273	1.63813999999999992951	-0.05450042834091999716	-0.12350578850443000301	-1.14014616085940989620	
43	0	6.38910999999999962284	1.95924999999999993605	3.11037000000000007915	-0.31681995734879997428	-1.15242780720218007673	0.61269295089528996723	
44	0	6.19601000000000023960	3.67025999999999985590	9.21008999999999922181	-0.20777640632642999097	-1.27757860502271003433	0.57222457166083995350	
45	1	6.20992000000000032855	1.79079000000000010395	7.57617999999999991445	0.55528072836014996660	0.62295177410252000616	0.54048130963798002302	
46	1	6.34170000000000033680	3.76797000000000004150	4.66335000000000032827	-0.09135591076679999700	0.17647448435636001185	-0.40486507318950998302	
47	1	6.19972999999999974108	1.71863000000000010203	10.73739999999999916724	0.35427099968374997641	0.89467537393186002959	0.00389280734708999984	
48	1	6.33917000000000019355	3.81837999999999988532	1.54716999999999993420	0.03421184742502000192	-1.35888129169656002304	-1.69888173557689992066	
49	0	7.94578000000000006509	4.54926999999999992497	3.01164999999999993818	0.78092836814011001856	1.17007348040989000992	1.62019536800307006885	
50	0	7.95103999999999988546	6.39262999999999959044	9.20481000000000015859	-0.95141141618295999027	-0.29453605519856002060	0.56400258741693998221	
51	1	7.78969000000000022510	4.53516999999999992355	7.72653999999999996362	0.51350623677169004999	0.04932945457219999746	-0.73307451606711004910	
52	1	7.98468999999999962114	6.38187999999999977518	4.58697999999999961318	0.10137822967340999469	-0.25235415014068002248	0.32819346630737999959	
53	1	7.83910999999999980048	4.58701999999999987523	10.79509999999999969589	-0.13676090813371999388	-0.37279309018792000652	-0.03707493773152999855	
54	1	7.90048999999999956856	6.38809999999999966747	1.44796999999999997932	0.77840578791012005055	0.11322441250602000018	0.28223353874012002684	
55	0	9.57770999999999972374	7.27944000000000013273	3.04165000000000018687	-0.72722435352529002373	-0.36996152622924000086	-0.37235194121822001723	
56	0	9.49567000000000049909	9.06531999999999982265	9.21427000000000084867	-0.80110845534448005267	0.87216637495576998518	-0.05637367531338999954	
57	1	9.53088999999999941792	7.26522999999999985477	7.55703999999999975756	-0.41439362031297999334	0.19329995059999999230	0.72625694057055001362	
58	1	9.63644000000000033879	9.03035999999999994259	4.66884000000000032315	-0.65575944114477002778	0.78660472767708999875	-0.15738705641205999464	
59	1	9.51806999999999980844	7.22327000000000030155	10.80470000000000041496	0.03385769370738000300	0.49281936585861002564	-0.10896762311688000524	
60	1	9.52706000000000052808	9.11283000000000065199	1.53543999999999991601	0.14507835379772998641	0.43759822147525001546	-0.29147292193793999937	
61	0	7.96647999999999978371	10.04030000000000022453	3.11844000000000010075	0.29761533033388998248	0.34631102672792002384	0.80661328273511001541	
62	0	7.91798000000000001819	0.98012900000000002798	9.20617000000000018645	-2.18663974581540010433	-1.50363742438502989707	1.04930000767960995844	
63	1	7.86986000000000007759	10.19860000000000077591	7.68745000000000011653	0.73610734733523996987	-1.47289021701223998839	-0.72084007853394005405	
64	1	8.01173999999999963961	0.96542399999999994886	4.68801999999999985391	-0.36084249652041999745	-0.13037849254785000008	-0.53514828106025003063	
65	1	7.84264000000000027768	9.94122999999999912291	10.83580000000000076454	0.39758668832179999697	0.67913331470292004344	-1.11564242978457994759	
66	1	7.91969000000000011852	0.91382499999999999840	1.59613999999999989221	0.25450212229884000559	0.16402895202237000039	-0.67897190398367002206	
67	0	9.58699000000000012278	1.83017999999999991800	3.05684999999999984510	-0.23378168887230998951	-0.31642277557272002753	0.09371573515092999906	
68	0	9.40752999999999950376	3.55983999999999989328	9.25919000000000025352	-0.12184150761914999683	2.34315880293637990306	-1.27542567960026009821	
69	1	9.30943000000000076000	1.87301999999999990720	7.59070999999999962427	1.25139882689307002650	-0.20228368881055000528	-0.19927539146382000634	
70	1	9.55460000000000064801	3.59353999999999995651	4.62790999999999996817	0.12030284076213999811	0.75672239871905000452	-0.10129874175457999341	
71	1	9.38687000000000004718	1.87793999999999994266	10.80129999999999945715	0.76218014689280000340	-1.13735559608966996237	0.89776571181257003307	
72	1	9.56587999999999993861	3.70983000000000018304	1.50153000000000003133	0.57022507217700002524	-0.54842170477365004277	-0.05796575413246000258	
73	0	11.21110000000000006537	4.56059000000000036579	3.11524000000000000909	-0.43009326970709998994	-0.99150953148132003889	-1.12978502748215992035	
74	0	11.05910000000000081855	6.33284000000000002473	9.20274999999999998579	-1.02019830419640000763	0.06518928721491000500	-0.78277843807281000110	
75	1	10.84549999999999947420	4.55707000000000039819	7.54344000000000036721	1.11667079196952001574	-0.54975327027133003011	0.87882698686269999921	
76	1	11.04850000000000065370	6.37913999999999958845	4.64287000000000027455	0.90889459192184995917	-0.30658763074731998355	0.51259420773137998051	
77	1	11.03529999999999944293	4.54291000000000000369	10.74310000000000009379	0.34476978078329001409	-0.73717492303469001058	0.05744294983044000158	
78	1	11.15269999999999939178	6.35588999999999959556	1.47256000000000009109	0.14258230780819999839	-0.23623057840451999745	0.19446704789141000536	
79	0	-0.06443590000000000428	7.24295000000000044338	3.10315999999999991843	1.57531636920240991628	1.22848714091631006085	-0.87541762374751996845	
80	0	-0.13234599999999999143	9.11668000000000056104	9.16169999999999973284	0.76354481962228004654	-0.10094596797551999567	0.98454160016881997475	
81	1	-0.15731200000000000738	7.25997999999999965581	7.62795000000000023022	0.79356008315494996896	0.17656119718366000693	-0.35651140723737001492	
82	1	0.00554304999999999989	9.20838999999999963109	4.58375000000000021316	0.07743362193248000402	-0.73900586385079003460	0.53253663925244998367	
83	1	-0.12018600000000000116	7.22862999999999988887	10.75159999999999982379	0.76733631811778002518	0.41631368742760999080	-0.22815648710374000774	
84	1	-0.07249099999999999988	9.12418000000000084526	1.55262999999999995460	0.34940676308325002708	-0.47320518977130998639	-0.71733714851255003797	
85	0	11.12959999999999993747	10.08000000000000007105	3.08855000000000012861	-0.71077740433617997429	-0.53336712430796995310	0.20297698805569999725	
86	0	10.99050000000000082423	0.90615299999999998626	9.16689000000000042689	-0.54006190058856995417	0.53834543945091994921	0.84471728679644997317	
87	1	11.01970000000000027285	10.07920000000000015916	7.66406000000000009464	-0.19485342407844000179	-0.55919002423762997900	-0.90080427479638003341	
88	1	11.08859999999999956799	0.90376599999999995827	4.71300000000000007816	0.35256101618683999277	-0.12636940240360000631	-0.58438547090852999144	
89	1	11.02630000000000087823	10.11950000000000038369	10.72530000000000072191	0.14017973128132998895	-0.73571896991199003946	0.51347728658238001032	
90	1	11.13369999999999926388	0.83618499999999995609	1.48370000000000001883	0.03122810806887000093	0.55755529777293000304	-0.05210193646249999810	
91	0	0.01870650000000000091	1.71158999999999994479	3.09214000000000011070	-0.64037107226894995904	1.51683842400172008702	-1.33982820970130989124	
92	0	-0.12241699999999999804	3.59839000000000019952	9.09986999999999923716	-0.45096572181415001124	0.95157010679316000878	-0.67730194934023002507	
93	1	-0.19689999999999999170	1.67836999999999991751	7.61286000000000040444	1.24493710020283998574	0.87238107859717994863	-0.58839461850170005075	
94	1	0.08381819999999999549	3.50309999999999988063	4.67037000000000013245	-0.42494234803346997431	0.92173233410957999823	-0.33241944350397001351	
95	1	-0.03200270000000000198	1.83008999999999999453	10.67629999999999945715	-0.30509739093369997454	-0.39991696451482999786	0.24021858981821000989	
96	1	0.14427999999999999159	3.50105000000000021743	1.37621999999999999886	-0.87354900959688996931	0.64190056077984003480	1.70109334475927997943	
Energy
-80522.50809898300212807953
PlusStress:	xx	yy	zz	yz	xz	xy
-10.53934594824131210089	-3.80846905437236982195	-0.79830560845626885591	4.73059941137359629693	1.22544866066781144021	1.90600371859645956185
END_CFG

BEGIN_CFG
Size
96
Supercell
12.644846896328927	0.0	0.0
0.0	10.959871055735796	0.0
0.0	0.0	12.504762180732488
AtomData:	id	type	cartes_x	cartes_y	cartes_z	fx	fy	fz
1	0	1.56834999999999991083	4.87338999999999966661	2.98536000000000001364	0.89607758505904000490	-1.61629631164329001791	0.06956055257139000247	
2	0	1.56543000000000009919	6.03932000000000002160	9.29772999999999960608	-1.35812451011761003983	2.48863156481213998461	-1.26777944634535999491	
3	1	1.45666999999999990933	4.32216000000000022396	7.71391999999999988802	-0.74142037689014994584	-0.50127841327594002685	-0.97555974462566996674	
4	1	1.74363000000000001322	6.55954000000000014836	4.53019999999999978257	-0.73277561957570003237	1.65925399429021003250	-0.06811170042231000366	
5	1	1.46266000000000007120	4.22356999999999960238	10.85180000000000077875	-0.53002128914694002226	0.45543326214724999534	0.02837280682008999980	
6	1	1.69001000000000001222	6.67670999999999992269	1.43419000000000007589	0.19085943029169000207	-0.40720681757603999218	-1.11992152104200992646	
7	0	3.33079999999999998295	7.60960999999999998522	2.92271999999999998465	-0.67746370160002999938	-1.19590880911251007390	1.62631076190690992966	